 vasp.6.3.2 27Jun22 (build Mar 16 2023 13:30:57) complex                         
 executed on        HPECrayEX_GCC date 2024.08.07  04:49:42
 running  256 mpi-ranks, with    1 threads/rank
 distrk:  each k-point on   64 cores,    4 groups
 distr:  one band on NCORE=   2 cores,   32 groups


--------------------------------------------------------------------------------------------------------


 INCAR:
   AEXX = 0.15
   ALGO = All
   EDIFF = 1e-05
   EDIFFG = -0.01
   ENCUT = 770
   HFSCREEN = 0.208
   IBRION = 2
   ICORELEVEL = 0
   ISIF = 3
   ISMEAR = 0
   ISPIN = 0
   ISYM = -1
   KPAR = 4
   LASPH = True
   LHFCALC = True
   LORBIT = 11
   LREAL = False
   LSUBROT = False
   LVHAR = True
   LWAVE = True
   NCORE = 2
   NEDOS = 2000
   NELM = 200
   LSORBIT = TRUE
   NSW = 200
   POTIM = 0.2
   PREC = Accurate
   PRECFOCK = Fast
   SIGMA = 0.05

 POTCAR:    PAW_PBE Te 08Apr2002                  
 POTCAR:    PAW_PBE Pb 08Apr2002                  
 -----------------------------------------------------------------------------
|                                                                             |
|           W    W    AA    RRRRR   N    N  II  N    N   GGGG   !!!           |
|           W    W   A  A   R    R  NN   N  II  NN   N  G    G  !!!           |
|           W    W  A    A  R    R  N N  N  II  N N  N  G       !!!           |
|           W WW W  AAAAAA  RRRRR   N  N N  II  N  N N  G  GGG   !            |
|           WW  WW  A    A  R   R   N   NN  II  N   NN  G    G                |
|           W    W  A    A  R    R  N    N  II  N    N   GGGG   !!!           |
|                                                                             |
|     You use a magnetic or noncollinear calculation, but did not specify     |
|     the initial magnetic moment with the MAGMOM tag. Note that a            |
|     default of 1 will be used for all atoms. This ferromagnetic setup       |
|     may break the symmetry of the crystal, in particular it may rule        |
|     out finding an antiferromagnetic solution. Thence, we recommend         |
|     setting the initial magnetic moment manually or verifying carefully     |
|     that this magnetic setup is desired.                                    |
|                                                                             |
 -----------------------------------------------------------------------------

 POTCAR:    PAW_PBE Te 08Apr2002                  
   VRHFIN =Te: s2p4                                                                                 
   LEXCH  = PE                                                                                      
   EATOM  =   223.2721 eV,   16.4100 Ry                                                             
                                                                                                    
   TITEL  = PAW_PBE Te 08Apr2002                                                                    
   LULTRA =        F    use ultrasoft PP ?                                                          
   IUNSCR =        1    unscreen: 0-lin 1-nonlin 2-no                                               
   RPACOR =    2.200    partial core radius                                                         
   POMASS =  127.600; ZVAL   =    6.000    mass and valenz                                          
   RCORE  =    2.300    outmost cutoff radius                                                       
   RWIGS  =    2.900; RWIGS  =    1.535    wigner-seitz radius (au A)                               
   ENMAX  =  174.982; ENMIN  =  131.236 eV                                                          
   ICORE  =        3    local potential                                                             
   LCOR   =        T    correct aug charges                                                         
   LPAW   =        T    paw PP                                                                      
   EAUG   =  368.792                                                                                
   DEXC   =    0.000                                                                                
   RMAX   =    2.345    core radius for proj-oper                                                   
   RAUG   =    1.300    factor for augmentation sphere                                              
   RDEP   =    2.397    radius for radial grids                                                     
   RDEPT  =    2.174    core radius for aug-charge                                                  
                                                                                                    
   Atomic configuration                                                                             
   13 entries                                                                                       
     n  l   j            E        occ.                                                              
     1  0  0.50    -31621.2075   2.0000                                                             
     2  0  0.50     -4848.7941   2.0000                                                             
     2  1  1.50     -4352.1960   6.0000                                                             
     3  0  0.50      -964.9612   2.0000                                                             
     3  1  1.50      -803.6179   6.0000                                                             
     3  2  2.50      -559.8710  10.0000                                                             
     4  0  0.50      -164.3522   2.0000                                                             
     4  1  1.50      -114.3756   6.0000                                                             
     4  2  2.50       -41.6483  10.0000                                                             
     5  0  0.50       -15.1072   2.0000                                                             
     5  1  0.50        -5.9526   4.0000                                                             
     5  2  1.50        -5.4423   0.0000                                                             
     4  3  2.50        -5.4423   0.0000                                                             
   Description                                                                                      
     l       E           TYP  RCUT    TYP  RCUT                                                     
     0    -15.1072389     23  2.300                                                                 
     0    -16.4678215     23  2.300                                                                 
     1     -5.9526306     23  2.300                                                                 
     1     -2.4873968     23  2.300                                                                 
     2     -5.4423304     23  2.300                                                                 
     3     -1.3605826     23  2.300                                                                 
  local pseudopotential read in
  partial core-charges read in
  partial kinetic energy density read in
  atomic valenz-charges read in
  non local Contribution for L=           0  read in
    real space projection operators read in
  non local Contribution for L=           0  read in
    real space projection operators read in
  non local Contribution for L=           1  read in
    real space projection operators read in
  non local Contribution for L=           1  read in
    real space projection operators read in
  non local Contribution for L=           2  read in
    real space projection operators read in
    PAW grid and wavefunctions read in

   number of l-projection  operators is LMAX  =           5
   number of lm-projection operators is LMMAX =          13

 POTCAR:    PAW_PBE Pb 08Apr2002                  
   VRHFIN =Pb:                                                                                      
   LEXCH  = PE                                                                                      
   EATOM  =    96.9868 eV,    7.1283 Ry                                                             
                                                                                                    
   TITEL  = PAW_PBE Pb 08Apr2002                                                                    
   LULTRA =        F    use ultrasoft PP ?                                                          
   IUNSCR =        1    unscreen: 0-lin 1-nonlin 2-no                                               
   RPACOR =    2.200    partial core radius                                                         
   POMASS =  207.200; ZVAL   =    4.000    mass and valenz                                          
   RCORE  =    3.100    outmost cutoff radius                                                       
   RWIGS  =    3.260; RWIGS  =    1.725    wigner-seitz radius (au A)                               
   ENMAX  =   97.973; ENMIN  =   73.480 eV                                                          
   ICORE  =        3    local potential                                                             
   LCOR   =        T    correct aug charges                                                         
   LPAW   =        T    paw PP                                                                      
   EAUG   =  234.873                                                                                
   DEXC   =    0.000                                                                                
   RMAX   =    3.158    core radius for proj-oper                                                   
   RAUG   =    1.300    factor for augmentation sphere                                              
   RDEP   =    3.202    radius for radial grids                                                     
   RDEPT  =    2.659    core radius for aug-charge                                                  
                                                                                                    
   Atomic configuration                                                                             
   17 entries                                                                                       
     n  l   j            E        occ.                                                              
     1  0  0.50    -88091.8466   2.0000                                                             
     2  0  0.50    -15753.4197   2.0000                                                             
     2  1  1.50    -13508.1797   6.0000                                                             
     3  0  0.50     -3781.7194   2.0000                                                             
     3  1  1.50     -3138.2529   6.0000                                                             
     3  2  2.50     -2483.2977  10.0000                                                             
     4  0  0.50      -856.2895   2.0000                                                             
     4  1  1.50      -645.4943   6.0000                                                             
     4  2  2.50      -401.8768  10.0000                                                             
     4  3  3.50      -132.9059  14.0000                                                             
     5  0  0.50      -144.0950   2.0000                                                             
     5  1  1.50       -85.7879   6.0000                                                             
     5  2  2.50       -21.1769  10.0000                                                             
     6  0  0.50       -12.0372   2.0000                                                             
     6  1  1.50        -3.4971   2.0000                                                             
     6  2  2.50        -1.3606   0.0000                                                             
     5  3  2.50        -2.7212   0.0000                                                             
   Description                                                                                      
     l       E           TYP  RCUT    TYP  RCUT                                                     
     0    -12.0371566     23  3.100                                                                 
     0    -13.3977392     23  3.100                                                                 
     1     -3.4971341     23  3.100                                                                 
     1     -5.4423304     23  3.100                                                                 
     2     -1.3605826     23  3.100                                                                 
     3     -1.3605826     23  3.100                                                                 
  local pseudopotential read in
  partial core-charges read in
  partial kinetic energy density read in
  atomic valenz-charges read in
  non local Contribution for L=           0  read in
    real space projection operators read in
  non local Contribution for L=           0  read in
    real space projection operators read in
  non local Contribution for L=           1  read in
    real space projection operators read in
  non local Contribution for L=           1  read in
    real space projection operators read in
  non local Contribution for L=           2  read in
    real space projection operators read in
    PAW grid and wavefunctions read in

   number of l-projection  operators is LMAX  =           5
   number of lm-projection operators is LMMAX =          13

 WARNING: PSMAXN for non-local potential too small
          PSMAXN should be >   14.216141646966818       NTYP=           2
  PAW_PBE Te 08Apr2002                  :
 energy of atom  1       EATOM= -223.2721
 kinetic energy error for atom=    0.0002 (will be added to EATOM!!)
  PAW_PBE Pb 08Apr2002                  :
 energy of atom  2       EATOM=  -96.9868
 kinetic energy error for atom=    0.0000 (will be added to EATOM!!)


 POSCAR: Te4 Pb4
  positions in direct lattice
  No initial velocities read in
 exchange correlation table for  LEXCH =        8
   RHO(1)=    0.500       N(1)  =     2000
   RHO(2)=  100.500       N(2)  =     4000



--------------------------------------------------------------------------------------------------------


 ion  position               nearest neighbor table
   1  0.000  0.000  0.000-   5 3.27   6 3.27   7 3.27   5 3.27   6 3.27   7 3.27
   2  0.000  0.500  0.500-   5 3.27   6 3.27   8 3.27   6 3.27   5 3.27   8 3.27
   3  0.500  0.000  0.500-   5 3.27   7 3.27   8 3.27   7 3.27   8 3.27   5 3.27
   4  0.500  0.500  0.000-   6 3.27   7 3.27   8 3.27   8 3.27   7 3.27   6 3.27
   5  0.000  0.000  0.500-   1 3.27   2 3.27   3 3.27   1 3.27   2 3.27   3 3.27
   6  0.000  0.500  0.000-   1 3.27   2 3.27   4 3.27   2 3.27   1 3.27   4 3.27
   7  0.500  0.000  0.000-   1 3.27   3 3.27   4 3.27   3 3.27   4 3.27   1 3.27
   8  0.500  0.500  0.500-   2 3.27   3 3.27   4 3.27   4 3.27   3 3.27   2 3.27


IMPORTANT INFORMATION: All symmetrisations will be switched off!
NOSYMM: (Re-)initialisation of all symmetry stuff for point group C_1.


----------------------------------------------------------------------------------------

                                     Primitive cell                                     

  volume of cell :     279.9565

  direct lattice vectors                    reciprocal lattice vectors
     6.541793610  0.000000000  0.000000000     0.152863276 -0.000000000  0.000000000
     0.000000000  6.541793610  0.000000000     0.000000000  0.152863276  0.000000000
     0.000000000  0.000000000  6.541793610    -0.000000000 -0.000000000  0.152863276

  length of vectors
     6.541793610  6.541793610  6.541793610     0.152863276  0.152863276  0.152863276

  position of ions in fractional coordinates (direct lattice)
     0.000000000  0.000000000  0.000000000
     1.000000000  0.500000000  0.500000000
     0.500000000  0.000000000  0.500000000
     0.500000000  0.500000000  0.000000000
     0.000000000  0.000000000  0.500000000
     1.000000000  0.500000000  0.000000000
     0.500000000  0.000000000  0.000000000
     0.500000000  0.500000000  0.500000000

  ion indices of the primitive-cell ions
   primitive index   ion index
                 1           1
                 2           2
                 3           3
                 4           4
                 5           5
                 6           6
                 7           7
                 8           8

----------------------------------------------------------------------------------------



 KPOINTS: Automatic mesh                          

Automatic generation of k-mesh.
 Grid dimensions read from file:
 generate k-points for:    4    4    4

 Generating k-lattice:

  Cartesian coordinates                     Fractional coordinates (reciprocal lattice)
     0.038215819 -0.000000000  0.000000000     0.250000000 -0.000000000  0.000000000
     0.000000000  0.038215819  0.000000000     0.000000000  0.250000000  0.000000000
    -0.000000000 -0.000000000  0.038215819     0.000000000 -0.000000000  0.250000000

  Length of vectors
     0.038215819  0.038215819  0.038215819

  Shift w.r.t. Gamma in fractional coordinates (k-lattice)
     0.000000000  0.000000000  0.000000000

 
 Subroutine IBZKPT returns following result:
 ===========================================
 
 Found     64 irreducible k-points:
 
 Following reciprocal coordinates:
            Coordinates               Weight
  0.000000  0.000000  0.000000      1.000000
  0.250000  0.000000  0.000000      1.000000
  0.500000  0.000000  0.000000      1.000000
 -0.250000  0.000000  0.000000      1.000000
  0.000000  0.250000  0.000000      1.000000
  0.250000  0.250000  0.000000      1.000000
  0.500000  0.250000  0.000000      1.000000
 -0.250000  0.250000  0.000000      1.000000
  0.000000  0.500000  0.000000      1.000000
  0.250000  0.500000  0.000000      1.000000
  0.500000  0.500000  0.000000      1.000000
 -0.250000  0.500000  0.000000      1.000000
  0.000000 -0.250000  0.000000      1.000000
  0.250000 -0.250000  0.000000      1.000000
  0.500000 -0.250000  0.000000      1.000000
 -0.250000 -0.250000  0.000000      1.000000
  0.000000  0.000000  0.250000      1.000000
  0.250000  0.000000  0.250000      1.000000
  0.500000  0.000000  0.250000      1.000000
 -0.250000  0.000000  0.250000      1.000000
  0.000000  0.250000  0.250000      1.000000
  0.250000  0.250000  0.250000      1.000000
  0.500000  0.250000  0.250000      1.000000
 -0.250000  0.250000  0.250000      1.000000
  0.000000  0.500000  0.250000      1.000000
  0.250000  0.500000  0.250000      1.000000
  0.500000  0.500000  0.250000      1.000000
 -0.250000  0.500000  0.250000      1.000000
  0.000000 -0.250000  0.250000      1.000000
  0.250000 -0.250000  0.250000      1.000000
  0.500000 -0.250000  0.250000      1.000000
 -0.250000 -0.250000  0.250000      1.000000
  0.000000  0.000000  0.500000      1.000000
  0.250000  0.000000  0.500000      1.000000
  0.500000  0.000000  0.500000      1.000000
 -0.250000  0.000000  0.500000      1.000000
  0.000000  0.250000  0.500000      1.000000
  0.250000  0.250000  0.500000      1.000000
  0.500000  0.250000  0.500000      1.000000
 -0.250000  0.250000  0.500000      1.000000
  0.000000  0.500000  0.500000      1.000000
  0.250000  0.500000  0.500000      1.000000
  0.500000  0.500000  0.500000      1.000000
 -0.250000  0.500000  0.500000      1.000000
  0.000000 -0.250000  0.500000      1.000000
  0.250000 -0.250000  0.500000      1.000000
  0.500000 -0.250000  0.500000      1.000000
 -0.250000 -0.250000  0.500000      1.000000
  0.000000  0.000000 -0.250000      1.000000
  0.250000  0.000000 -0.250000      1.000000
  0.500000  0.000000 -0.250000      1.000000
 -0.250000  0.000000 -0.250000      1.000000
  0.000000  0.250000 -0.250000      1.000000
  0.250000  0.250000 -0.250000      1.000000
  0.500000  0.250000 -0.250000      1.000000
 -0.250000  0.250000 -0.250000      1.000000
  0.000000  0.500000 -0.250000      1.000000
  0.250000  0.500000 -0.250000      1.000000
  0.500000  0.500000 -0.250000      1.000000
 -0.250000  0.500000 -0.250000      1.000000
  0.000000 -0.250000 -0.250000      1.000000
  0.250000 -0.250000 -0.250000      1.000000
  0.500000 -0.250000 -0.250000      1.000000
 -0.250000 -0.250000 -0.250000      1.000000
 
 Following cartesian coordinates:
            Coordinates               Weight
  0.000000  0.000000  0.000000      1.000000
  0.038216  0.000000  0.000000      1.000000
  0.076432  0.000000  0.000000      1.000000
 -0.038216  0.000000  0.000000      1.000000
  0.000000  0.038216  0.000000      1.000000
  0.038216  0.038216  0.000000      1.000000
  0.076432  0.038216  0.000000      1.000000
 -0.038216  0.038216  0.000000      1.000000
  0.000000  0.076432  0.000000      1.000000
  0.038216  0.076432  0.000000      1.000000
  0.076432  0.076432  0.000000      1.000000
 -0.038216  0.076432  0.000000      1.000000
  0.000000 -0.038216  0.000000      1.000000
  0.038216 -0.038216  0.000000      1.000000
  0.076432 -0.038216  0.000000      1.000000
 -0.038216 -0.038216  0.000000      1.000000
  0.000000  0.000000  0.038216      1.000000
  0.038216  0.000000  0.038216      1.000000
  0.076432  0.000000  0.038216      1.000000
 -0.038216  0.000000  0.038216      1.000000
  0.000000  0.038216  0.038216      1.000000
  0.038216  0.038216  0.038216      1.000000
  0.076432  0.038216  0.038216      1.000000
 -0.038216  0.038216  0.038216      1.000000
  0.000000  0.076432  0.038216      1.000000
  0.038216  0.076432  0.038216      1.000000
  0.076432  0.076432  0.038216      1.000000
 -0.038216  0.076432  0.038216      1.000000
  0.000000 -0.038216  0.038216      1.000000
  0.038216 -0.038216  0.038216      1.000000
  0.076432 -0.038216  0.038216      1.000000
 -0.038216 -0.038216  0.038216      1.000000
  0.000000  0.000000  0.076432      1.000000
  0.038216  0.000000  0.076432      1.000000
  0.076432  0.000000  0.076432      1.000000
 -0.038216  0.000000  0.076432      1.000000
  0.000000  0.038216  0.076432      1.000000
  0.038216  0.038216  0.076432      1.000000
  0.076432  0.038216  0.076432      1.000000
 -0.038216  0.038216  0.076432      1.000000
  0.000000  0.076432  0.076432      1.000000
  0.038216  0.076432  0.076432      1.000000
  0.076432  0.076432  0.076432      1.000000
 -0.038216  0.076432  0.076432      1.000000
  0.000000 -0.038216  0.076432      1.000000
  0.038216 -0.038216  0.076432      1.000000
  0.076432 -0.038216  0.076432      1.000000
 -0.038216 -0.038216  0.076432      1.000000
  0.000000  0.000000 -0.038216      1.000000
  0.038216  0.000000 -0.038216      1.000000
  0.076432  0.000000 -0.038216      1.000000
 -0.038216  0.000000 -0.038216      1.000000
  0.000000  0.038216 -0.038216      1.000000
  0.038216  0.038216 -0.038216      1.000000
  0.076432  0.038216 -0.038216      1.000000
 -0.038216  0.038216 -0.038216      1.000000
  0.000000  0.076432 -0.038216      1.000000
  0.038216  0.076432 -0.038216      1.000000
  0.076432  0.076432 -0.038216      1.000000
 -0.038216  0.076432 -0.038216      1.000000
  0.000000 -0.038216 -0.038216      1.000000
  0.038216 -0.038216 -0.038216      1.000000
  0.076432 -0.038216 -0.038216      1.000000
 -0.038216 -0.038216 -0.038216      1.000000
 
 WARNING: full set of k-points will be restricted to regular points only.

 
 Subroutine IBZKPT_HF returns following result:
 ==============================================
 
 Found     64 k-points in 1st BZ
 the following     64 k-points will be used (e.g. in the exchange kernel)
 Following reciprocal coordinates:   # in IRBZ
  0.000000  0.000000  0.000000    0.01562500   1 t-inv F
  0.250000  0.000000  0.000000    0.01562500   2 t-inv F
  0.500000  0.000000  0.000000    0.01562500   3 t-inv F
 -0.250000  0.000000  0.000000    0.01562500   4 t-inv F
  0.000000  0.250000  0.000000    0.01562500   5 t-inv F
  0.250000  0.250000  0.000000    0.01562500   6 t-inv F
  0.500000  0.250000  0.000000    0.01562500   7 t-inv F
 -0.250000  0.250000  0.000000    0.01562500   8 t-inv F
  0.000000  0.500000  0.000000    0.01562500   9 t-inv F
  0.250000  0.500000  0.000000    0.01562500  10 t-inv F
  0.500000  0.500000  0.000000    0.01562500  11 t-inv F
 -0.250000  0.500000  0.000000    0.01562500  12 t-inv F
  0.000000 -0.250000  0.000000    0.01562500  13 t-inv F
  0.250000 -0.250000  0.000000    0.01562500  14 t-inv F
  0.500000 -0.250000  0.000000    0.01562500  15 t-inv F
 -0.250000 -0.250000  0.000000    0.01562500  16 t-inv F
  0.000000  0.000000  0.250000    0.01562500  17 t-inv F
  0.250000  0.000000  0.250000    0.01562500  18 t-inv F
  0.500000  0.000000  0.250000    0.01562500  19 t-inv F
 -0.250000  0.000000  0.250000    0.01562500  20 t-inv F
  0.000000  0.250000  0.250000    0.01562500  21 t-inv F
  0.250000  0.250000  0.250000    0.01562500  22 t-inv F
  0.500000  0.250000  0.250000    0.01562500  23 t-inv F
 -0.250000  0.250000  0.250000    0.01562500  24 t-inv F
  0.000000  0.500000  0.250000    0.01562500  25 t-inv F
  0.250000  0.500000  0.250000    0.01562500  26 t-inv F
  0.500000  0.500000  0.250000    0.01562500  27 t-inv F
 -0.250000  0.500000  0.250000    0.01562500  28 t-inv F
  0.000000 -0.250000  0.250000    0.01562500  29 t-inv F
  0.250000 -0.250000  0.250000    0.01562500  30 t-inv F
  0.500000 -0.250000  0.250000    0.01562500  31 t-inv F
 -0.250000 -0.250000  0.250000    0.01562500  32 t-inv F
  0.000000  0.000000  0.500000    0.01562500  33 t-inv F
  0.250000  0.000000  0.500000    0.01562500  34 t-inv F
  0.500000  0.000000  0.500000    0.01562500  35 t-inv F
 -0.250000  0.000000  0.500000    0.01562500  36 t-inv F
  0.000000  0.250000  0.500000    0.01562500  37 t-inv F
  0.250000  0.250000  0.500000    0.01562500  38 t-inv F
  0.500000  0.250000  0.500000    0.01562500  39 t-inv F
 -0.250000  0.250000  0.500000    0.01562500  40 t-inv F
  0.000000  0.500000  0.500000    0.01562500  41 t-inv F
  0.250000  0.500000  0.500000    0.01562500  42 t-inv F
  0.500000  0.500000  0.500000    0.01562500  43 t-inv F
 -0.250000  0.500000  0.500000    0.01562500  44 t-inv F
  0.000000 -0.250000  0.500000    0.01562500  45 t-inv F
  0.250000 -0.250000  0.500000    0.01562500  46 t-inv F
  0.500000 -0.250000  0.500000    0.01562500  47 t-inv F
 -0.250000 -0.250000  0.500000    0.01562500  48 t-inv F
  0.000000  0.000000 -0.250000    0.01562500  49 t-inv F
  0.250000  0.000000 -0.250000    0.01562500  50 t-inv F
  0.500000  0.000000 -0.250000    0.01562500  51 t-inv F
 -0.250000  0.000000 -0.250000    0.01562500  52 t-inv F
  0.000000  0.250000 -0.250000    0.01562500  53 t-inv F
  0.250000  0.250000 -0.250000    0.01562500  54 t-inv F
  0.500000  0.250000 -0.250000    0.01562500  55 t-inv F
 -0.250000  0.250000 -0.250000    0.01562500  56 t-inv F
  0.000000  0.500000 -0.250000    0.01562500  57 t-inv F
  0.250000  0.500000 -0.250000    0.01562500  58 t-inv F
  0.500000  0.500000 -0.250000    0.01562500  59 t-inv F
 -0.250000  0.500000 -0.250000    0.01562500  60 t-inv F
  0.000000 -0.250000 -0.250000    0.01562500  61 t-inv F
  0.250000 -0.250000 -0.250000    0.01562500  62 t-inv F
  0.500000 -0.250000 -0.250000    0.01562500  63 t-inv F
 -0.250000 -0.250000 -0.250000    0.01562500  64 t-inv F


--------------------------------------------------------------------------------------------------------




 Dimension of arrays:
   k-points           NKPTS =     64   k-points in BZ     NKDIM =     64   number of bands    NBANDS=     64
   number of dos      NEDOS =   2000   number of ions     NIONS =      8
   non local maximal  LDIM  =      5   non local SUM 2l+1 LMDIM =     13
   total plane-waves  NPLWV = 216000
   max r-space proj   IRMAX =      1   max aug-charges    IRDMAX=  88484
   dimension x,y,z NGX =    60 NGY =   60 NGZ =   60
   dimension x,y,z NGXF=   120 NGYF=  120 NGZF=  120
   support grid    NGXF=   120 NGYF=  120 NGZF=  120
   ions per type =               4   4
   NGX,Y,Z   is equivalent  to a cutoff of  15.25, 15.25, 15.25 a.u.
   NGXF,Y,Z  is equivalent  to a cutoff of  30.50, 30.50, 30.50 a.u.

 SYSTEM =  unknown system                          
 POSCAR =  Te4 Pb4                                 

 Startparameter for this run:
   NWRITE =      2    write-flag & timer
   PREC   = accura    normal or accurate (medium, high low for compatibility)
   ISTART =      0    job   : 0-new  1-cont  2-samecut
   ICHARG =      2    charge: 1-file 2-atom 10-const
   ISPIN  =      1    spin polarized calculation?
   LNONCOLLINEAR =      T non collinear calculations
   LSORBIT =      T    spin-orbit coupling
   INIWAV =      1    electr: 0-lowe 1-rand  2-diag
   LASPH  =      T    aspherical Exc in radial PAW
 Electronic Relaxation 1
   ENCUT  =  770.0 eV  56.59 Ry    7.52 a.u.  14.80 14.80 14.80*2*pi/ulx,y,z
   ENINI  =  770.0     initial cutoff
   ENAUG  =  368.8 eV  augmentation charge cutoff
   NELM   =    200;   NELMIN=  2; NELMDL= -5     # of ELM steps 
   EDIFF  = 0.1E-04   stopping-criterion for ELM
   LREAL  =      F    real-space projection
   NLSPLINE    = F    spline interpolate recip. space projectors
   LCOMPAT=      F    compatible to vasp.4.4
   GGA_COMPAT  = T    GGA compatible to vasp.4.4-vasp.4.6
   LMAXPAW     = -100 max onsite density
   LMAXMIX     =    2 max onsite mixed and CHGCAR
   VOSKOWN=      0    Vosko Wilk Nusair interpolation
   ROPT   =    0.00000   0.00000
 Ionic relaxation
   EDIFFG = -.1E-01   stopping-criterion for IOM
   NSW    =    200    number of steps for IOM
   NBLOCK =      1;   KBLOCK =    200    inner block; outer block 
   IBRION =      2    ionic relax: 0-MD 1-quasi-New 2-CG
   NFREE  =      1    steps in history (QN), initial steepest desc. (CG)
   ISIF   =      3    stress and relaxation
   IWAVPR =     11    prediction:  0-non 1-charg 2-wave 3-comb
   ISYM   =     -1    0-nonsym 1-usesym 2-fastsym
   LCORR  =      T    Harris-Foulkes like correction to forces

   POTIM  = 0.2000    time-step for ionic-motion
   TEIN   =    0.0    initial temperature
   TEBEG  =    0.0;   TEEND  =   0.0 temperature during run
   SMASS  =  -3.00    Nose mass-parameter (am)
   estimated Nose-frequenzy (Omega)   =  0.10E-29 period in steps = 0.31E+47 mass=  -0.978E-27a.u.
   SCALEE = 1.0000    scale energy and forces
   NPACO  =    256;   APACO  = 10.0  distance and # of slots for P.C.
   PSTRESS=    0.0 pullay stress

  Mass of Ions in am
   POMASS = 127.60207.20
  Ionic Valenz
   ZVAL   =   6.00  4.00
  Atomic Wigner-Seitz radii
   RWIGS  =  -1.00 -1.00
  virtual crystal weights 
   VCA    =   1.00  1.00
   NELECT =      40.0000    total number of electrons
   NUPDOWN=      -1.0000    fix difference up-down

 DOS related values:
   EMIN   =  10.00;   EMAX   =-10.00  energy-range for DOS
   EFERMI =   0.00
   ISMEAR =     0;   SIGMA  =   0.05  broadening in eV -4-tet -1-fermi 0-gaus

 Electronic relaxation 2 (details)
   IALGO  =     58    algorithm
   LDIAG  =      T    sub-space diagonalisation (order eigenvalues)
   LSUBROT=      F    optimize rotation matrix (better conditioning)
   TURBO    =      0    0=normal 1=particle mesh
   IRESTART =      0    0=no restart 2=restart with 2 vectors
   NREBOOT  =      0    no. of reboots
   NMIN     =      0    reboot dimension
   EREF     =   0.00    reference energy to select bands
   IMIX   =      4    mixing-type and parameters
     AMIX     =   0.40;   BMIX     =  1.00
     AMIX_MAG =   1.60;   BMIX_MAG =  1.00
     AMIN     =   0.10
     WC   =   100.;   INIMIX=   1;  MIXPRE=   1;  MAXMIX= -45

 Intra band minimization:
   WEIMIN = 0.0010     energy-eigenvalue tresh-hold
   EBREAK =  0.39E-07  absolut break condition
   DEPER  =   0.30     relativ break condition  

   TIME   =   0.40     timestep for ELM

  volume/ion in A,a.u.               =      34.99       236.15
  Fermi-wavevector in a.u.,A,eV,Ry     =   0.855851  1.617323  9.966000  0.732480
  Thomas-Fermi vector in A             =   1.972663

 Write flags
   LWAVE        =      T    write WAVECAR
   LDOWNSAMPLE  =      F    k-point downsampling of WAVECAR
   LCHARG       =      T    write CHGCAR
   LVTOT        =      F    write LOCPOT, total local potential
   LVHAR        =      T    write LOCPOT, Hartree potential only
   LELF         =      F    write electronic localiz. function (ELF)
   LORBIT       =     11    0 simple, 1 ext, 2 COOP (PROOUT), +10 PAW based schemes


 Dipole corrections
   LMONO  =      F    monopole corrections only (constant potential shift)
   LDIPOL =      F    correct potential (dipole corrections)
   IDIPOL =      0    1-x, 2-y, 3-z, 4-all directions 
   EPSILON=  1.0000000 bulk dielectric constant

 Exchange correlation treatment:
   GGA     =    --    GGA type
   LEXCH   =     8    internal setting for exchange type
   LIBXC   =     F    Libxc                    
   VOSKOWN =     0    Vosko Wilk Nusair interpolation
   EXXOEP  =     0    0=HF, 1=EXX-LHF (local Hartree Fock) 2=EXX OEP
   LHFCALC =     T    Hartree Fock is set to
   LSYMGRAD=     F    symmetrize gradient (conserves proper symmetry)
   PRECFOCK=fast      Normal, Fast or Accurate (Low or Medium for compatibility)
   LRHFCALC=     F    long range Hartree Fock
   LRSCOR  =     F    long range correlation only (use DFT for short range part)
   LTHOMAS =     F    Thomas Fermi screening in HF
   LMODELHF=     F    short range full HF, long range fraction AEXX
   FOCKCORR=     1    mode to apply convergence corrections
   LFOCKACE=     T    use Adeptively-Compressed-Exchange operator
   ENCUT4O =  -1.0   cutoff for four orbital integrals eV
   LMAXFOCK=     4    L truncation for augmentation on plane wave grid
   LMAXFOCKAE=  -1    L truncation for all-electron charge restoration on plane wave grid
   NMAXFOCKAE=   1    number of basis functions for all-electron charge restoration
   LFOCKAEDFT=     F  apply the AE augmentation even for DFT
   NKREDX  =     1    reduce k-point grid by
   NKREDY  =     1    reduce k-point grid by
   NKREDZ  =     1    reduce k-point grid by
   SHIFTRED=     F    shift reduced grid of Gamma
   HFKIDENT=     F    idential grid for each k-point
   ODDONLY =     F    use only odd q-grid points
   EVENONLY=     F    use only even q-grid points
   HFALPHA =   -1.0000 decay constant for conv. correction
   MCALPHA =    0.0000 extent of test-charge in conv. correction in multipole expansion
   AEXX    =    0.1500 exact exchange contribution
   HFSCREEN=    0.2080 screening length (either q_TF or 0.3 A-1)
   HFSCREENC=   0.2080 screening length for correlation (either q_TF or 0.3 A-1)
   HFRCUT  =    0.0000 spherical cutoff for potential kernel
   ALDAX   =    0.8500 LDA exchange part
   AGGAX   =    0.8500 GGA exchange part
   ALDAC   =    1.0000 LDA correlation
   AGGAC   =    1.0000 GGA correlation
   ENCUTFOCK=  -1.0 apply spherical cutoff to Coloumb kernel
   NBANDSGWLOW=     1    first orbital included in HF term
   NBLOCK_FOCK=    64    blocking factor in FOCK_ACC

 Linear response parameters
   LEPSILON=     F    determine dielectric tensor
   LRPA    =     F    only Hartree local field effects (RPA)
   LNABLA  =     F    use nabla operator in PAW spheres
   LVEL    =     F    velocity operator in full k-point grid
   CSHIFT  =0.1000    complex shift for real part using Kramers Kronig
   OMEGAMAX=  -1.0    maximum frequency
   DEG_THRESHOLD= 0.2000000E-02 threshold for treating states as degnerate
   RTIME   =   -0.100 relaxation time in fs
  (WPLASMAI=    0.000 imaginary part of plasma frequency in eV, 0.658/RTIME)
   DFIELD  = 0.0000000 0.0000000 0.0000000 field for delta impulse in time

  Optional k-point grid parameters
   LKPOINTS_OPT  =     F    use optional k-point grid
   KPOINTS_OPT_MODE=     1    mode for optional k-point grid

 Orbital magnetization related:
   ORBITALMAG=     F  switch on orbital magnetization
   LCHIMAG   =     F  perturbation theory with respect to B field
   DQ        =  0.001000  dq finite difference perturbation B field
   LLRAUG    =     F  two centre corrections for induced B field



--------------------------------------------------------------------------------------------------------


 conjugate gradient relaxation of ions
 charge density and potential will be updated during run
 non collinear spin polarized calculation
 Conjugate gradient for all bands (Freysoldt, et al. PRB 79, 241103 (2009))
 preconditioned conjugated gradient                                        
 perform sub-space diagonalisation
    before iterative eigenvector-optimisation
 modified Broyden-mixing scheme, WC =      100.0
 initial mixing is a Kerker type mixing with AMIX =  0.4000 and BMIX =      1.0000
 Hartree-type preconditioning will be used
 using additional bands           44
 reciprocal scheme for non local part
 use partial core corrections
 no Harris-corrections to forces 
 use gradient corrections 
 use of overlap-Matrix (Vanderbilt PP)
 Gauss-broadening in eV      SIGMA  =   0.05


--------------------------------------------------------------------------------------------------------


  energy-cutoff  :      770.00
  volume of cell :      279.96
      direct lattice vectors                 reciprocal lattice vectors
     6.541793610  0.000000000  0.000000000     0.152863276 -0.000000000  0.000000000
     0.000000000  6.541793610  0.000000000     0.000000000  0.152863276  0.000000000
     0.000000000  0.000000000  6.541793610    -0.000000000 -0.000000000  0.152863276

  length of vectors
     6.541793610  6.541793610  6.541793610     0.152863276  0.152863276  0.152863276



 k-points in units of 2pi/SCALE and weight: Automatic mesh                          
   0.00000000  0.00000000  0.00000000       0.016
   0.03821582  0.00000000  0.00000000       0.016
   0.07643164  0.00000000  0.00000000       0.016
  -0.03821582  0.00000000  0.00000000       0.016
   0.00000000  0.03821582  0.00000000       0.016
   0.03821582  0.03821582  0.00000000       0.016
   0.07643164  0.03821582  0.00000000       0.016
  -0.03821582  0.03821582  0.00000000       0.016
   0.00000000  0.07643164  0.00000000       0.016
   0.03821582  0.07643164  0.00000000       0.016
   0.07643164  0.07643164  0.00000000       0.016
  -0.03821582  0.07643164  0.00000000       0.016
   0.00000000 -0.03821582  0.00000000       0.016
   0.03821582 -0.03821582  0.00000000       0.016
   0.07643164 -0.03821582  0.00000000       0.016
  -0.03821582 -0.03821582  0.00000000       0.016
   0.00000000  0.00000000  0.03821582       0.016
   0.03821582  0.00000000  0.03821582       0.016
   0.07643164  0.00000000  0.03821582       0.016
  -0.03821582  0.00000000  0.03821582       0.016
   0.00000000  0.03821582  0.03821582       0.016
   0.03821582  0.03821582  0.03821582       0.016
   0.07643164  0.03821582  0.03821582       0.016
  -0.03821582  0.03821582  0.03821582       0.016
   0.00000000  0.07643164  0.03821582       0.016
   0.03821582  0.07643164  0.03821582       0.016
   0.07643164  0.07643164  0.03821582       0.016
  -0.03821582  0.07643164  0.03821582       0.016
   0.00000000 -0.03821582  0.03821582       0.016
   0.03821582 -0.03821582  0.03821582       0.016
   0.07643164 -0.03821582  0.03821582       0.016
  -0.03821582 -0.03821582  0.03821582       0.016
   0.00000000  0.00000000  0.07643164       0.016
   0.03821582  0.00000000  0.07643164       0.016
   0.07643164  0.00000000  0.07643164       0.016
  -0.03821582  0.00000000  0.07643164       0.016
   0.00000000  0.03821582  0.07643164       0.016
   0.03821582  0.03821582  0.07643164       0.016
   0.07643164  0.03821582  0.07643164       0.016
  -0.03821582  0.03821582  0.07643164       0.016
   0.00000000  0.07643164  0.07643164       0.016
   0.03821582  0.07643164  0.07643164       0.016
   0.07643164  0.07643164  0.07643164       0.016
  -0.03821582  0.07643164  0.07643164       0.016
   0.00000000 -0.03821582  0.07643164       0.016
   0.03821582 -0.03821582  0.07643164       0.016
   0.07643164 -0.03821582  0.07643164       0.016
  -0.03821582 -0.03821582  0.07643164       0.016
   0.00000000  0.00000000 -0.03821582       0.016
   0.03821582  0.00000000 -0.03821582       0.016
   0.07643164  0.00000000 -0.03821582       0.016
  -0.03821582  0.00000000 -0.03821582       0.016
   0.00000000  0.03821582 -0.03821582       0.016
   0.03821582  0.03821582 -0.03821582       0.016
   0.07643164  0.03821582 -0.03821582       0.016
  -0.03821582  0.03821582 -0.03821582       0.016
   0.00000000  0.07643164 -0.03821582       0.016
   0.03821582  0.07643164 -0.03821582       0.016
   0.07643164  0.07643164 -0.03821582       0.016
  -0.03821582  0.07643164 -0.03821582       0.016
   0.00000000 -0.03821582 -0.03821582       0.016
   0.03821582 -0.03821582 -0.03821582       0.016
   0.07643164 -0.03821582 -0.03821582       0.016
  -0.03821582 -0.03821582 -0.03821582       0.016

 k-points in reciprocal lattice and weights: Automatic mesh                          
   0.00000000  0.00000000  0.00000000       0.016
   0.25000000  0.00000000  0.00000000       0.016
   0.50000000  0.00000000  0.00000000       0.016
  -0.25000000  0.00000000  0.00000000       0.016
   0.00000000  0.25000000  0.00000000       0.016
   0.25000000  0.25000000  0.00000000       0.016
   0.50000000  0.25000000  0.00000000       0.016
  -0.25000000  0.25000000  0.00000000       0.016
   0.00000000  0.50000000  0.00000000       0.016
   0.25000000  0.50000000  0.00000000       0.016
   0.50000000  0.50000000  0.00000000       0.016
  -0.25000000  0.50000000  0.00000000       0.016
   0.00000000 -0.25000000  0.00000000       0.016
   0.25000000 -0.25000000  0.00000000       0.016
   0.50000000 -0.25000000  0.00000000       0.016
  -0.25000000 -0.25000000  0.00000000       0.016
   0.00000000  0.00000000  0.25000000       0.016
   0.25000000  0.00000000  0.25000000       0.016
   0.50000000  0.00000000  0.25000000       0.016
  -0.25000000  0.00000000  0.25000000       0.016
   0.00000000  0.25000000  0.25000000       0.016
   0.25000000  0.25000000  0.25000000       0.016
   0.50000000  0.25000000  0.25000000       0.016
  -0.25000000  0.25000000  0.25000000       0.016
   0.00000000  0.50000000  0.25000000       0.016
   0.25000000  0.50000000  0.25000000       0.016
   0.50000000  0.50000000  0.25000000       0.016
  -0.25000000  0.50000000  0.25000000       0.016
   0.00000000 -0.25000000  0.25000000       0.016
   0.25000000 -0.25000000  0.25000000       0.016
   0.50000000 -0.25000000  0.25000000       0.016
  -0.25000000 -0.25000000  0.25000000       0.016
   0.00000000  0.00000000  0.50000000       0.016
   0.25000000  0.00000000  0.50000000       0.016
   0.50000000  0.00000000  0.50000000       0.016
  -0.25000000  0.00000000  0.50000000       0.016
   0.00000000  0.25000000  0.50000000       0.016
   0.25000000  0.25000000  0.50000000       0.016
   0.50000000  0.25000000  0.50000000       0.016
  -0.25000000  0.25000000  0.50000000       0.016
   0.00000000  0.50000000  0.50000000       0.016
   0.25000000  0.50000000  0.50000000       0.016
   0.50000000  0.50000000  0.50000000       0.016
  -0.25000000  0.50000000  0.50000000       0.016
   0.00000000 -0.25000000  0.50000000       0.016
   0.25000000 -0.25000000  0.50000000       0.016
   0.50000000 -0.25000000  0.50000000       0.016
  -0.25000000 -0.25000000  0.50000000       0.016
   0.00000000  0.00000000 -0.25000000       0.016
   0.25000000  0.00000000 -0.25000000       0.016
   0.50000000  0.00000000 -0.25000000       0.016
  -0.25000000  0.00000000 -0.25000000       0.016
   0.00000000  0.25000000 -0.25000000       0.016
   0.25000000  0.25000000 -0.25000000       0.016
   0.50000000  0.25000000 -0.25000000       0.016
  -0.25000000  0.25000000 -0.25000000       0.016
   0.00000000  0.50000000 -0.25000000       0.016
   0.25000000  0.50000000 -0.25000000       0.016
   0.50000000  0.50000000 -0.25000000       0.016
  -0.25000000  0.50000000 -0.25000000       0.016
   0.00000000 -0.25000000 -0.25000000       0.016
   0.25000000 -0.25000000 -0.25000000       0.016
   0.50000000 -0.25000000 -0.25000000       0.016
  -0.25000000 -0.25000000 -0.25000000       0.016

 position of ions in fractional coordinates (direct lattice) 
   0.00000000  0.00000000  0.00000000
   0.00000000  0.50000000  0.50000000
   0.50000000  0.00000000  0.50000000
   0.50000000  0.50000000  0.00000000
   0.00000000  0.00000000  0.50000000
   0.00000000  0.50000000  0.00000000
   0.50000000  0.00000000  0.00000000
   0.50000000  0.50000000  0.50000000

 position of ions in cartesian coordinates  (Angst):
   0.00000000  0.00000000  0.00000000
   0.00000000  3.27089681  3.27089681
   3.27089681  0.00000000  3.27089681
   3.27089681  3.27089681  0.00000000
   0.00000000  0.00000000  3.27089681
   0.00000000  3.27089681  0.00000000
   3.27089681  0.00000000  0.00000000
   3.27089681  3.27089681  3.27089681

 Euler angles ALPHA=     0.0000000  BETA=     0.0000000

 transformation matrix from SAXIS to cartesian coordinates
 ---------------------------------------------------------
     1.0000000 m_x    -0.0000000 m_y     0.0000000 m_z
     0.0000000 m_x     1.0000000 m_y     0.0000000 m_z
    -0.0000000 m_x     0.0000000 m_y     1.0000000 m_z

 transformation matrix from cartesian coordinates to SAXIS
 ---------------------------------------------------------
     1.0000000 m_x     0.0000000 m_y    -0.0000000 m_z
    -0.0000000 m_x     1.0000000 m_y     0.0000000 m_z
     0.0000000 m_x     0.0000000 m_y     1.0000000 m_z




--------------------------------------------------------------------------------------------------------


 k-point   1 :   0.0000 0.0000 0.0000  plane waves:   27226
 k-point   2 :   0.2500 0.0000 0.0000  plane waves:   27148
 k-point   3 :   0.5000 0.0000 0.0000  plane waves:   27116
 k-point   4 :  -0.2500 0.0000 0.0000  plane waves:   27148
 k-point   5 :   0.0000 0.2500 0.0000  plane waves:   27148
 k-point   6 :   0.2500 0.2500 0.0000  plane waves:   27070
 k-point   7 :   0.5000 0.2500 0.0000  plane waves:   27192
 k-point   8 :  -0.2500 0.2500 0.0000  plane waves:   27070
 k-point   9 :   0.0000 0.5000 0.0000  plane waves:   27116
 k-point  10 :   0.2500 0.5000 0.0000  plane waves:   27192
 k-point  11 :   0.5000 0.5000 0.0000  plane waves:   27184
 k-point  12 :  -0.2500 0.5000 0.0000  plane waves:   27192
 k-point  13 :   0.0000-0.2500 0.0000  plane waves:   27148
 k-point  14 :   0.2500-0.2500 0.0000  plane waves:   27070
 k-point  15 :   0.5000-0.2500 0.0000  plane waves:   27192
 k-point  16 :  -0.2500-0.2500 0.0000  plane waves:   27070
 k-point  17 :   0.0000 0.0000 0.2500  plane waves:   27148
 k-point  18 :   0.2500 0.0000 0.2500  plane waves:   27070
 k-point  19 :   0.5000 0.0000 0.2500  plane waves:   27192
 k-point  20 :  -0.2500 0.0000 0.2500  plane waves:   27070
 k-point  21 :   0.0000 0.2500 0.2500  plane waves:   27070
 k-point  22 :   0.2500 0.2500 0.2500  plane waves:   27154
 k-point  23 :   0.5000 0.2500 0.2500  plane waves:   27144
 k-point  24 :  -0.2500 0.2500 0.2500  plane waves:   27154
 k-point  25 :   0.0000 0.5000 0.2500  plane waves:   27192
 k-point  26 :   0.2500 0.5000 0.2500  plane waves:   27144
 k-point  27 :   0.5000 0.5000 0.2500  plane waves:   27208
 k-point  28 :  -0.2500 0.5000 0.2500  plane waves:   27144
 k-point  29 :   0.0000-0.2500 0.2500  plane waves:   27070
 k-point  30 :   0.2500-0.2500 0.2500  plane waves:   27154
 k-point  31 :   0.5000-0.2500 0.2500  plane waves:   27144
 k-point  32 :  -0.2500-0.2500 0.2500  plane waves:   27154
 k-point  33 :   0.0000 0.0000 0.5000  plane waves:   27116
 k-point  34 :   0.2500 0.0000 0.5000  plane waves:   27192
 k-point  35 :   0.5000 0.0000 0.5000  plane waves:   27184
 k-point  36 :  -0.2500 0.0000 0.5000  plane waves:   27192
 k-point  37 :   0.0000 0.2500 0.5000  plane waves:   27192
 k-point  38 :   0.2500 0.2500 0.5000  plane waves:   27144
 k-point  39 :   0.5000 0.2500 0.5000  plane waves:   27208
 k-point  40 :  -0.2500 0.2500 0.5000  plane waves:   27144
 k-point  41 :   0.0000 0.5000 0.5000  plane waves:   27184
 k-point  42 :   0.2500 0.5000 0.5000  plane waves:   27208
 k-point  43 :   0.5000 0.5000 0.5000  plane waves:   27408
 k-point  44 :  -0.2500 0.5000 0.5000  plane waves:   27208
 k-point  45 :   0.0000-0.2500 0.5000  plane waves:   27192
 k-point  46 :   0.2500-0.2500 0.5000  plane waves:   27144
 k-point  47 :   0.5000-0.2500 0.5000  plane waves:   27208
 k-point  48 :  -0.2500-0.2500 0.5000  plane waves:   27144
 k-point  49 :   0.0000 0.0000-0.2500  plane waves:   27148
 k-point  50 :   0.2500 0.0000-0.2500  plane waves:   27070
 k-point  51 :   0.5000 0.0000-0.2500  plane waves:   27192
 k-point  52 :  -0.2500 0.0000-0.2500  plane waves:   27070
 k-point  53 :   0.0000 0.2500-0.2500  plane waves:   27070
 k-point  54 :   0.2500 0.2500-0.2500  plane waves:   27154
 k-point  55 :   0.5000 0.2500-0.2500  plane waves:   27144
 k-point  56 :  -0.2500 0.2500-0.2500  plane waves:   27154
 k-point  57 :   0.0000 0.5000-0.2500  plane waves:   27192
 k-point  58 :   0.2500 0.5000-0.2500  plane waves:   27144
 k-point  59 :   0.5000 0.5000-0.2500  plane waves:   27208
 k-point  60 :  -0.2500 0.5000-0.2500  plane waves:   27144
 k-point  61 :   0.0000-0.2500-0.2500  plane waves:   27070
 k-point  62 :   0.2500-0.2500-0.2500  plane waves:   27154
 k-point  63 :   0.5000-0.2500-0.2500  plane waves:   27144
 k-point  64 :  -0.2500-0.2500-0.2500  plane waves:   27154

 maximum and minimum number of plane-waves per node :     13944    13384

 maximum number of plane-waves:     27408
 maximum index in each direction: 
   IXMAX=   15   IYMAX=   15   IZMAX=   15
   IXMIN=  -15   IYMIN=  -15   IZMIN=  -15


 parallel 3D FFT for wavefunctions:
    minimum data exchange during FFTs selected (reduces bandwidth)
 parallel 3D FFT for charge:
    minimum data exchange during FFTs selected (reduces bandwidth)


 FFT grid for exact exchange (Hartree Fock) 
  NGX = 32; NGY = 32; NGZ = 32


 Radii for the augmentation spheres in the non-local exchange
 for species   1 augmentation radius   1.606 (default was   1.190)
       energy cutoff for augmentation   3080.0
 for species   2 augmentation radius   2.013 (default was   1.491)
       energy cutoff for augmentation   3080.0

 real space projection operators:
  total allocation   :       4623.44 KBytes
  max/ min on nodes  :       2320.31       2303.12

 Maximum index for augmentation-charges in exchange         1949
  SETUP_FOCK is finished

 total amount of memory used by VASP MPI-rank0   237010. kBytes
=======================================================================

   base      :      30000. kBytes
   nonl-proj :      91607. kBytes
   fftplans  :       6551. kBytes
   grid      :      20736. kBytes
   one-center:        129. kBytes
   HF        :         67. kBytes
   nonlr-proj:       3380. kBytes
   wavefun   :      84540. kBytes

     INWAV:  cpu time      0.0001: real time      0.0001
 Broyden mixing: mesh for mixing (old mesh)
   NGX = 29   NGY = 29   NGZ = 29
  (NGX  =120   NGY  =120   NGZ  =120)
  gives a total of  24389 points

 initial charge density was supplied:
 charge density of overlapping atoms calculated
 number of electron      40.0000000 magnetization       8.0000000      8.0000000      8.0000000
 keeping initial charge density in first step


--------------------------------------------------------------------------------------------------------


 Maximum index for augmentation-charges         2361 (set IRDMAX)


--------------------------------------------------------------------------------------------------------


 First call to EWALD:  gamma=   0.271
 Maximum number of real-space cells 3x 3x 3
 Maximum number of reciprocal cells 3x 3x 3

    FEWALD:  cpu time      0.0312: real time      0.0312


--------------------------------------- Iteration      1(   1)  ---------------------------------------


    POTLOK:  cpu time      0.1773: real time      0.1777
    SETDIJ:  cpu time      0.6684: real time      0.6693
    TRIAL :  cpu time      3.8584: real time      3.8678
    CORREC:  cpu time      0.0030: real time      0.0030
    --------------------------------------------
      LOOP:  cpu time      4.7662: real time      4.7769

 eigenvalue-minimisations  :  8192
 total energy-change (2. order) :-0.8686854E+04  (-0.1948335E+04)
 number of electron      40.0000000 magnetization       8.0000000      8.0000000      8.0000000
 augmentation part       40.0000000 magnetization       8.0000000      8.0000000      8.0000000

 Free energy of the ion-electron system (eV)
  ---------------------------------------------------
  alpha Z        PSCENC =        15.50309534
  Ewald energy   TEWEN  =     -1279.86501545
  -Hartree energ DENC   =       -78.89665279
  -exchange      EXHF   =         0.00000000
  -V(xc)+E(xc)   XCENC  =      -626.14743324
  PAW double counting   =      1628.52707375    -9813.63907627
  entropy T*S    EENTRO =        -0.00463905
  eigenvalues    EBANDS =       192.61640459
  atomic energy  EATOM  =      1275.05191906
  ---------------------------------------------------
  free energy    TOTEN  =     -8686.85432407 eV

  energy without entropy =    -8686.84968502  energy(sigma->0) =    -8686.85200455
  exchange ACFDT corr.  =         0.00000000  see jH, gK, PRB 81, 115126


--------------------------------------------------------------------------------------------------------




--------------------------------------- Iteration      1(   2)  ---------------------------------------


    TRIAL :  cpu time      5.6042: real time      5.6081
    CORREC:  cpu time      0.0011: real time      0.0011
    --------------------------------------------
      LOOP:  cpu time      5.6214: real time      5.6380

 eigenvalue-minimisations  : 11808
 total energy-change (2. order) :-0.2282453E+03  (-0.2225621E+03)
 number of electron      40.0000000 magnetization       8.0000000      8.0000000      8.0000000
 augmentation part       40.0000000 magnetization       8.0000000      8.0000000      8.0000000

 Free energy of the ion-electron system (eV)
  ---------------------------------------------------
  alpha Z        PSCENC =        15.50309534
  Ewald energy   TEWEN  =     -1279.86501545
  -Hartree energ DENC   =       -78.89665279
  -exchange      EXHF   =         0.00000000
  -V(xc)+E(xc)   XCENC  =      -626.14743324
  PAW double counting   =      1628.52707375    -9813.63907627
  entropy T*S    EENTRO =        -0.00117538
  eigenvalues    EBANDS =       -35.63239268
  atomic energy  EATOM  =      1275.05191906
  ---------------------------------------------------
  free energy    TOTEN  =     -8915.09965767 eV

  energy without entropy =    -8915.09848229  energy(sigma->0) =    -8915.09906998
  exchange ACFDT corr.  =         0.00000000  see jH, gK, PRB 81, 115126


--------------------------------------------------------------------------------------------------------




--------------------------------------- Iteration      1(   3)  ---------------------------------------


    TRIAL :  cpu time      5.6649: real time      5.6701
    CORREC:  cpu time      0.0011: real time      0.0011
    --------------------------------------------
      LOOP:  cpu time      5.6797: real time      5.7011

 eigenvalue-minimisations  : 11936
 total energy-change (2. order) :-0.1756735E+02  (-0.1747155E+02)
 number of electron      40.0000000 magnetization       8.0000000      8.0000000      8.0000000
 augmentation part       40.0000000 magnetization       8.0000000      8.0000000      8.0000000

 Free energy of the ion-electron system (eV)
  ---------------------------------------------------
  alpha Z        PSCENC =        15.50309534
  Ewald energy   TEWEN  =     -1279.86501545
  -Hartree energ DENC   =       -78.89665279
  -exchange      EXHF   =         0.00000000
  -V(xc)+E(xc)   XCENC  =      -626.14743324
  PAW double counting   =      1628.52707375    -9813.63907627
  entropy T*S    EENTRO =        -0.00078184
  eigenvalues    EBANDS =       -53.20013610
  atomic energy  EATOM  =      1275.05191906
  ---------------------------------------------------
  free energy    TOTEN  =     -8932.66700755 eV

  energy without entropy =    -8932.66622571  energy(sigma->0) =    -8932.66661663
  exchange ACFDT corr.  =         0.00000000  see jH, gK, PRB 81, 115126


--------------------------------------------------------------------------------------------------------




--------------------------------------- Iteration      1(   4)  ---------------------------------------


    TRIAL :  cpu time      4.9417: real time      4.9465
    CORREC:  cpu time      0.0011: real time      0.0011
    --------------------------------------------
      LOOP:  cpu time      4.9555: real time      4.9772

 eigenvalue-minimisations  : 10848
 total energy-change (2. order) :-0.3913319E+00  (-0.3912531E+00)
 number of electron      40.0000000 magnetization       8.0000000      8.0000000      8.0000000
 augmentation part       40.0000000 magnetization       8.0000000      8.0000000      8.0000000

 Free energy of the ion-electron system (eV)
  ---------------------------------------------------
  alpha Z        PSCENC =        15.50309534
  Ewald energy   TEWEN  =     -1279.86501545
  -Hartree energ DENC   =       -78.89665279
  -exchange      EXHF   =         0.00000000
  -V(xc)+E(xc)   XCENC  =      -626.14743324
  PAW double counting   =      1628.52707375    -9813.63907627
  entropy T*S    EENTRO =        -0.00080852
  eigenvalues    EBANDS =       -53.59144131
  atomic energy  EATOM  =      1275.05191906
  ---------------------------------------------------
  free energy    TOTEN  =     -8933.05833944 eV

  energy without entropy =    -8933.05753092  energy(sigma->0) =    -8933.05793518
  exchange ACFDT corr.  =         0.00000000  see jH, gK, PRB 81, 115126


--------------------------------------------------------------------------------------------------------




--------------------------------------- Iteration      1(   5)  ---------------------------------------


    POTLOK:  cpu time      0.2127: real time      0.2127
    SETDIJ:  cpu time      1.9377: real time      1.9389
    TRIAL :  cpu time    290.5323: real time    290.7570
    CORREC:  cpu time      0.0011: real time      0.0011
    CHARGE:  cpu time      0.5850: real time      0.5854
    --------------------------------------------
      LOOP:  cpu time    293.2874: real time    293.5249

 eigenvalue-minimisations  :  8192
 total energy-change (2. order) : 0.8901192E+04  (-0.9691885E+00)
 number of electron      40.0000002 magnetization       0.0986118      0.0986163      0.0986216
 augmentation part      -10.0385057 magnetization       0.0538997      0.0539001      0.0538819

 Free energy of the ion-electron system (eV)
  ---------------------------------------------------
  alpha Z        PSCENC =        15.50309534
  Ewald energy   TEWEN  =     -1279.86501545
  -Hartree energ DENC   =       -78.89665279
  -exchange      EXHF   =        30.45307042
  -V(xc)+E(xc)   XCENC  =      -550.72463519
  PAW double counting   =      1552.01360441     -945.69199512
  entropy T*S    EENTRO =        -0.00075280
  eigenvalues    EBANDS =       -49.70924059
  atomic energy  EATOM  =      1275.05191906
  ---------------------------------------------------
  free energy    TOTEN  =       -31.86660273 eV

  energy without entropy =      -31.86584993  energy(sigma->0) =      -31.86622633
  exchange ACFDT corr.  =        -0.00013341  see jH, gK, PRB 81, 115126


--------------------------------------------------------------------------------------------------------




--------------------------------------- Iteration      1(   6)  ---------------------------------------


    POTLOK:  cpu time      0.2094: real time      0.2094
    SETDIJ:  cpu time      1.9187: real time      1.9197
    TRIAL :  cpu time    288.8680: real time    289.0901
    CORREC:  cpu time    290.2182: real time    290.4443
    CHARGE:  cpu time      0.5074: real time      0.5074
    --------------------------------------------
      LOOP:  cpu time    581.7568: real time    582.2064

 eigenvalue-minimisations  :     0
 total energy-change (2. order) :-0.1668306E+01  (-0.8125065E+00)
 number of electron      40.0000002 magnetization       0.0872208      0.0872110      0.0872064
 augmentation part       -9.9133732 magnetization       0.0261236      0.0261675      0.0261726

 Free energy of the ion-electron system (eV)
  ---------------------------------------------------
  alpha Z        PSCENC =        15.50309534
  Ewald energy   TEWEN  =     -1279.86501545
  -Hartree energ DENC   =       -98.35501911
  -exchange      EXHF   =        30.13376069
  -V(xc)+E(xc)   XCENC  =      -550.72214244
  PAW double counting   =      5251.03921586    -4645.27063119
  entropy T*S    EENTRO =        -0.00083463
  eigenvalues    EBANDS =       -31.04933858
  atomic energy  EATOM  =      1275.05191906
  ---------------------------------------------------
  free energy    TOTEN  =       -33.53490862 eV

  energy without entropy =      -33.53407400  energy(sigma->0) =      -33.53449131
  exchange ACFDT corr.  =        -0.00006520  see jH, gK, PRB 81, 115126


--------------------------------------------------------------------------------------------------------




--------------------------------------- Iteration      1(   7)  ---------------------------------------


    POTLOK:  cpu time      0.2237: real time      0.2241
    SETDIJ:  cpu time      1.9007: real time      1.9014
    TRIAL :  cpu time    288.8661: real time    289.0908
    CORREC:  cpu time    290.6838: real time    290.9104
    CHARGE:  cpu time      0.5033: real time      0.5033
    --------------------------------------------
      LOOP:  cpu time    582.1913: real time    582.6631

 eigenvalue-minimisations  :     0
 total energy-change (2. order) :-0.8102612E+00  (-0.1466587E+00)
 number of electron      40.0000002 magnetization       0.0339686      0.0339601      0.0339558
 augmentation part       -9.9339448 magnetization       0.0047350      0.0047944      0.0047980

 Free energy of the ion-electron system (eV)
  ---------------------------------------------------
  alpha Z        PSCENC =        15.50309534
  Ewald energy   TEWEN  =     -1279.86501545
  -Hartree energ DENC   =       -87.69687945
  -exchange      EXHF   =        29.62287370
  -V(xc)+E(xc)   XCENC  =      -551.26458528
  PAW double counting   =      4970.41421806    -4364.31854898
  entropy T*S    EENTRO =        -0.00120831
  eigenvalues    EBANDS =       -41.79141220
  atomic energy  EATOM  =      1275.05191906
  ---------------------------------------------------
  free energy    TOTEN  =       -34.34516982 eV

  energy without entropy =      -34.34396151  energy(sigma->0) =      -34.34456567
  exchange ACFDT corr.  =        -0.00015640  see jH, gK, PRB 81, 115126


--------------------------------------------------------------------------------------------------------




--------------------------------------- Iteration      1(   8)  ---------------------------------------


    POTLOK:  cpu time      0.2247: real time      0.2247
    SETDIJ:  cpu time      1.9023: real time      1.9030
    TRIAL :  cpu time    289.3996: real time    289.6270
    CORREC:  cpu time    290.5648: real time    290.7949
    CHARGE:  cpu time      0.5038: real time      0.5039
    --------------------------------------------
      LOOP:  cpu time    582.6091: real time    583.0859

 eigenvalue-minimisations  :     0
 total energy-change (2. order) :-0.1454098E+00  (-0.3687840E-01)
 number of electron      40.0000002 magnetization       0.0117256      0.0117216      0.0117189
 augmentation part       -9.9192664 magnetization      -0.0018591     -0.0018229     -0.0018299

 Free energy of the ion-electron system (eV)
  ---------------------------------------------------
  alpha Z        PSCENC =        15.50309534
  Ewald energy   TEWEN  =     -1279.86501545
  -Hartree energ DENC   =       -86.58810641
  -exchange      EXHF   =        29.52919278
  -V(xc)+E(xc)   XCENC  =      -551.34901718
  PAW double counting   =      5078.84692131    -4472.75730353
  entropy T*S    EENTRO =        -0.00012633
  eigenvalues    EBANDS =       -42.86105718
  atomic energy  EATOM  =      1275.05191906
  ---------------------------------------------------
  free energy    TOTEN  =       -34.49057958 eV

  energy without entropy =      -34.49045326  energy(sigma->0) =      -34.49051642
  exchange ACFDT corr.  =        -0.00012458  see jH, gK, PRB 81, 115126


--------------------------------------------------------------------------------------------------------




--------------------------------------- Iteration      1(   9)  ---------------------------------------


    POTLOK:  cpu time      0.2095: real time      0.2095
    SETDIJ:  cpu time      1.9174: real time      1.9180
    TRIAL :  cpu time    289.1484: real time    289.3732
    CORREC:  cpu time    290.7594: real time    290.9873
    CHARGE:  cpu time      0.5073: real time      0.5073
    --------------------------------------------
      LOOP:  cpu time    582.5744: real time    583.0279

 eigenvalue-minimisations  :     0
 total energy-change (2. order) :-0.3768992E-01  (-0.6574036E-02)
 number of electron      40.0000002 magnetization       0.0061105      0.0061105      0.0061071
 augmentation part       -9.9115841 magnetization      -0.0006951     -0.0006796     -0.0006714

 Free energy of the ion-electron system (eV)
  ---------------------------------------------------
  alpha Z        PSCENC =        15.50309534
  Ewald energy   TEWEN  =     -1279.86501545
  -Hartree energ DENC   =       -86.32741466
  -exchange      EXHF   =        29.50126603
  -V(xc)+E(xc)   XCENC  =      -551.34990141
  PAW double counting   =      5130.16407265    -4524.11090573
  entropy T*S    EENTRO =        -0.00001122
  eigenvalues    EBANDS =       -43.09525900
  atomic energy  EATOM  =      1275.05191906
  ---------------------------------------------------
  free energy    TOTEN  =       -34.52826950 eV

  energy without entropy =      -34.52825828  energy(sigma->0) =      -34.52826389
  exchange ACFDT corr.  =        -0.00000812  see jH, gK, PRB 81, 115126


--------------------------------------------------------------------------------------------------------




--------------------------------------- Iteration      1(  10)  ---------------------------------------


    POTLOK:  cpu time      0.2268: real time      0.2268
    SETDIJ:  cpu time      1.9009: real time      1.9016
    TRIAL :  cpu time    288.3401: real time    288.5629
    CORREC:  cpu time    288.3801: real time    288.6021
    CHARGE:  cpu time      0.5021: real time      0.5022
    --------------------------------------------
      LOOP:  cpu time    579.3924: real time    579.8384

 eigenvalue-minimisations  :     0
 total energy-change (2. order) :-0.6617276E-02  (-0.1433093E-02)
 number of electron      40.0000002 magnetization       0.0030352      0.0030366      0.0030331
 augmentation part       -9.9116153 magnetization       0.0001482      0.0001503      0.0001489

 Free energy of the ion-electron system (eV)
  ---------------------------------------------------
  alpha Z        PSCENC =        15.50309534
  Ewald energy   TEWEN  =     -1279.86501545
  -Hartree energ DENC   =       -86.40843384
  -exchange      EXHF   =        29.50140211
  -V(xc)+E(xc)   XCENC  =      -551.34007961
  PAW double counting   =      5114.85314579    -4508.82236567
  entropy T*S    EENTRO =        -0.00000179
  eigenvalues    EBANDS =       -43.00854328
  atomic energy  EATOM  =      1275.05191906
  ---------------------------------------------------
  free energy    TOTEN  =       -34.53488678 eV

  energy without entropy =      -34.53488498  energy(sigma->0) =      -34.53488588
  exchange ACFDT corr.  =        -0.00000055  see jH, gK, PRB 81, 115126


--------------------------------------------------------------------------------------------------------




--------------------------------------- Iteration      1(  11)  ---------------------------------------


    POTLOK:  cpu time      0.2084: real time      0.2084
    SETDIJ:  cpu time      1.9208: real time      1.9214
    TRIAL :  cpu time    287.9014: real time    288.1270
    CORREC:  cpu time    288.2204: real time    288.4448
    CHARGE:  cpu time      0.5039: real time      0.5039
    --------------------------------------------
      LOOP:  cpu time    578.7712: real time    579.2390

 eigenvalue-minimisations  :     0
 total energy-change (2. order) :-0.1441417E-02  (-0.3139066E-03)
 number of electron      40.0000002 magnetization       0.0013228      0.0013232      0.0013207
 augmentation part       -9.9111150 magnetization       0.0002168      0.0002121      0.0002130

 Free energy of the ion-electron system (eV)
  ---------------------------------------------------
  alpha Z        PSCENC =        15.50309534
  Ewald energy   TEWEN  =     -1279.86501545
  -Hartree energ DENC   =       -86.47254296
  -exchange      EXHF   =        29.50284166
  -V(xc)+E(xc)   XCENC  =      -551.33759684
  PAW double counting   =      5085.73304424    -4479.70984337
  entropy T*S    EENTRO =        -0.00000068
  eigenvalues    EBANDS =       -42.94222808
  atomic energy  EATOM  =      1275.05191906
  ---------------------------------------------------
  free energy    TOTEN  =       -34.53632819 eV

  energy without entropy =      -34.53632751  energy(sigma->0) =      -34.53632785
  exchange ACFDT corr.  =        -0.00000008  see jH, gK, PRB 81, 115126


--------------------------------------------------------------------------------------------------------




--------------------------------------- Iteration      1(  12)  ---------------------------------------


    POTLOK:  cpu time      0.2094: real time      0.2098
    SETDIJ:  cpu time      1.9164: real time      1.9167
    TRIAL :  cpu time    288.0945: real time    288.3171
    CORREC:  cpu time    288.2491: real time    288.4769
    CHARGE:  cpu time      0.5024: real time      0.5030
    --------------------------------------------
      LOOP:  cpu time    578.9854: real time    579.4571

 eigenvalue-minimisations  :     0
 total energy-change (2. order) :-0.3246279E-03  (-0.9116823E-04)
 number of electron      40.0000002 magnetization       0.0003971      0.0003971      0.0003959
 augmentation part       -9.9116382 magnetization       0.0000561      0.0000551      0.0000568

 Free energy of the ion-electron system (eV)
  ---------------------------------------------------
  alpha Z        PSCENC =        15.50309534
  Ewald energy   TEWEN  =     -1279.86501545
  -Hartree energ DENC   =       -86.42017360
  -exchange      EXHF   =        29.50074164
  -V(xc)+E(xc)   XCENC  =      -551.34019813
  PAW double counting   =      5062.25076998    -4456.22502229
  entropy T*S    EENTRO =        -0.00000047
  eigenvalues    EBANDS =       -42.99276868
  atomic energy  EATOM  =      1275.05191906
  ---------------------------------------------------
  free energy    TOTEN  =       -34.53665282 eV

  energy without entropy =      -34.53665236  energy(sigma->0) =      -34.53665259
  exchange ACFDT corr.  =        -0.00000003  see jH, gK, PRB 81, 115126


--------------------------------------------------------------------------------------------------------




--------------------------------------- Iteration      1(  13)  ---------------------------------------


    POTLOK:  cpu time      0.2238: real time      0.2239
    SETDIJ:  cpu time      1.9056: real time      1.9069
    TRIAL :  cpu time    287.8236: real time    288.0486
    CORREC:  cpu time    288.1543: real time    288.3743
    CHARGE:  cpu time      0.5043: real time      0.5055
    --------------------------------------------
      LOOP:  cpu time    578.6300: real time    579.0933

 eigenvalue-minimisations  :     0
 total energy-change (2. order) :-0.9599184E-04  (-0.2773652E-04)
 number of electron      40.0000002 magnetization      -0.0000005     -0.0000004     -0.0000010
 augmentation part       -9.9118462 magnetization      -0.0000155     -0.0000137     -0.0000135

 Free energy of the ion-electron system (eV)
  ---------------------------------------------------
  alpha Z        PSCENC =        15.50309534
  Ewald energy   TEWEN  =     -1279.86501545
  -Hartree energ DENC   =       -86.43875320
  -exchange      EXHF   =        29.50216591
  -V(xc)+E(xc)   XCENC  =      -551.33905208
  PAW double counting   =      5051.86637512    -4445.83930115
  entropy T*S    EENTRO =        -0.00000051
  eigenvalues    EBANDS =       -42.97818190
  atomic energy  EATOM  =      1275.05191906
  ---------------------------------------------------
  free energy    TOTEN  =       -34.53674881 eV

  energy without entropy =      -34.53674830  energy(sigma->0) =      -34.53674856
  exchange ACFDT corr.  =        -0.00000002  see jH, gK, PRB 81, 115126


--------------------------------------------------------------------------------------------------------




--------------------------------------- Iteration      1(  14)  ---------------------------------------


    POTLOK:  cpu time      0.2251: real time      0.2251
    SETDIJ:  cpu time      1.8990: real time      1.8994
    TRIAL :  cpu time    287.2934: real time    287.5193
    CORREC:  cpu time    287.9986: real time    288.2200
    CHARGE:  cpu time      0.5074: real time      0.5075
    --------------------------------------------
      LOOP:  cpu time    577.9332: real time    578.4037

 eigenvalue-minimisations  :     0
 total energy-change (2. order) :-0.2852251E-04  (-0.8859995E-05)
 number of electron      40.0000002 magnetization      -0.0001188     -0.0001187     -0.0001190
 augmentation part       -9.9117180 magnetization      -0.0000172     -0.0000170     -0.0000166

 Free energy of the ion-electron system (eV)
  ---------------------------------------------------
  alpha Z        PSCENC =        15.50309534
  Ewald energy   TEWEN  =     -1279.86501545
  -Hartree energ DENC   =       -86.45340279
  -exchange      EXHF   =        29.50307141
  -V(xc)+E(xc)   XCENC  =      -551.33817660
  PAW double counting   =      5049.04101029    -4443.01361657
  entropy T*S    EENTRO =        -0.00000065
  eigenvalues    EBANDS =       -42.96566151
  atomic energy  EATOM  =      1275.05191906
  ---------------------------------------------------
  free energy    TOTEN  =       -34.53677734 eV

  energy without entropy =      -34.53677669  energy(sigma->0) =      -34.53677701
  exchange ACFDT corr.  =        -0.00000002  see jH, gK, PRB 81, 115126


--------------------------------------------------------------------------------------------------------




--------------------------------------- Iteration      1(  15)  ---------------------------------------


    POTLOK:  cpu time      0.2270: real time      0.2274
    SETDIJ:  cpu time      1.9193: real time      1.9197
    TRIAL :  cpu time    287.6579: real time    287.8818
    CORREC:  cpu time    289.2317: real time    289.4539
    EDDIAG:  cpu time    286.7894: real time    287.0107
    CHARGE:  cpu time      0.5022: real time      0.5022
    --------------------------------------------
      LOOP:  cpu time    866.3412: real time    867.0295

 eigenvalue-minimisations  :     0
 total energy-change (2. order) :-0.8845798E-05  (-0.3684826E-05)
 number of electron      40.0000002 magnetization      -0.0001180     -0.0001179     -0.0001181
 augmentation part       -9.9116210 magnetization       0.0000026      0.0000018      0.0000015

 Free energy of the ion-electron system (eV)
  ---------------------------------------------------
  alpha Z        PSCENC =        15.50309534
  Ewald energy   TEWEN  =     -1279.86501545
  -Hartree energ DENC   =       -86.44966847
  -exchange      EXHF   =        29.50281781
  -V(xc)+E(xc)   XCENC  =      -551.33829829
  PAW double counting   =      5048.77438631    -4442.74685594
  entropy T*S    EENTRO =        -0.00000073
  eigenvalues    EBANDS =       -42.96926786
  atomic energy  EATOM  =      1275.05191906
  ---------------------------------------------------
  free energy    TOTEN  =       -34.53678618 eV

  energy without entropy =      -34.53678545  energy(sigma->0) =      -34.53678582
  exchange ACFDT corr.  =        -0.00000003  see jH, gK, PRB 81, 115126


--------------------------------------------------------------------------------------------------------


  average scaling for gradient   0.9936


 average (electrostatic) potential at core
  the test charge radii are     1.1897  1.4908
  (the norm of the test charge is              1.0000)
       1 -87.2913       2 -87.2913       3 -87.2913       4 -87.2913       5 -40.7475
       6 -40.7475       7 -40.7475       8 -40.7475



 E-fermi :   4.1888     XC(G=0):  -8.1686     alpha+bet : -9.4453

 Fermi energy:         4.1888309217

 k-point     1 :       0.0000    0.0000    0.0000
  band No.  band energies     occupation 
      1      -8.4816      1.00000
      2      -8.4815      1.00000
      3      -6.9022      1.00000
      4      -6.9022      1.00000
      5      -6.9022      1.00000
      6      -6.9020      1.00000
      7      -6.9020      1.00000
      8      -6.9020      1.00000
      9      -3.5751      1.00000
     10      -3.5751      1.00000
     11      -3.5751      1.00000
     12      -3.5749      1.00000
     13      -3.5749      1.00000
     14      -3.5749      1.00000
     15      -1.9061      1.00000
     16      -1.9061      1.00000
     17      -0.6008      1.00000
     18      -0.6008      1.00000
     19      -0.6008      1.00000
     20      -0.6008      1.00000
     21      -0.6008      1.00000
     22      -0.6008      1.00000
     23       0.7867      1.00000
     24       0.7867      1.00000
     25       0.7867      1.00000
     26       0.7867      1.00000
     27       0.7867      1.00000
     28       0.7867      1.00000
     29       1.4809      1.00000
     30       1.4809      1.00000
     31       1.4809      1.00000
     32       1.4809      1.00000
     33       1.4809      1.00000
     34       1.4809      1.00000
     35       1.8825      1.00000
     36       1.8826      1.00000
     37       2.9723      1.00000
     38       2.9724      1.00000
     39       2.9724      1.00000
     40       2.9725      1.00000
     41       7.0301      0.00000
     42       7.0301      0.00000
     43       7.6847      0.00000
     44       7.6847      0.00000
     45       7.6847      0.00000
     46       7.6848      0.00000
     47       7.6848      0.00000
     48       7.6848      0.00000
     49       8.9229      0.00000
     50       8.9237      0.00000
     51       8.9238      0.00000
     52       8.9242      0.00000
     53       8.9275      0.00000
     54       8.9286      0.00000
     55       9.0237      0.00000
     56       9.0239      0.00000
     57       9.0240      0.00000
     58       9.0240      0.00000
     59      10.1243      0.00000
     60      10.1448      0.00000
     61      10.1903      0.00000
     62      10.4834      0.00000
     63      10.5304      0.00000
     64      10.7122      0.00000

 k-point     2 :       0.2500    0.0000    0.0000
  band No.  band energies     occupation 
      1      -8.3039      1.00000
      2      -8.3038      1.00000
      3      -7.2044      1.00000
      4      -7.2042      1.00000
      5      -6.8282      1.00000
      6      -6.8282      1.00000
      7      -6.8280      1.00000
      8      -6.8280      1.00000
      9      -3.9322      1.00000
     10      -3.9322      1.00000
     11      -3.9319      1.00000
     12      -3.9319      1.00000
[...]
  721        redis_pw                              0.129301                          160   3
  722          m_alltoall_d                          0.124046                        192   4
  723        orth1                                 0.022767                           64   3
  724        m_sumb_d                              0.011095                           64   3
  725        shift_bands_between_low_high          0.000687                           32   3
  726        pdssyex_zheevx                        0.212935                           32   3
  727        lincom                                0.027946                           32   3
  728        m_bcast_z                             0.001549                            4   3
  729        m_bcast_d                             0.000625                            4   3
  730      set_charge                            1.081771                              2   2
  731        soft_charge                           0.981688                            2   3
  732          fftwav_mpi                            0.307153                        128   4
  733            fft3d_mpi                             0.213807                      128   5
  734              fftbas_mpi                            0.213703                    128   6
  735                fftbas_plan_mpi                       0.213619                  128   7
  736                  dfftw_execute                         0.112062                384   8
  737                  map_forward                           0.099236                256   8
  738                    map_gather                            0.019405              128   9
  739                    m_alltoallv_z                         0.055679              128   9
  740                    map_scatter                           0.012038              128   9
  741          pw_charge                             0.510913                         64   4
  742          m_sumb_d                              0.119764                         16   4
  743          fft_gq                                0.030263                          2   4
  744            fft3d_mpi                             0.028731                        8   5
  745              fftbas_mpi                            0.028725                      8   6
  746                fftbas_plan_mpi                       0.028719                    8   7
  747                  dfftw_execute                         0.002820                 24   8
  748                  map_backward                          0.025819                 16   8
  749                    map_gather                            0.004415               16   9
  750                    m_alltoallv_z                         0.021243               16   9
  751                    map_scatter                           0.000126               16   9
  752        depsum                                0.005692                            2   3
  753          m_sumb_d                              0.005016                          4   4
  754        augmentation_charge                   0.089832                            2   3
  755          m_sumb_d                              0.000345                          2   4
  756          fft3d_mpi                             0.026367                          8   4
  757            fftbas_mpi                            0.026358                        8   5
  758              fftbas_plan_mpi                       0.026354                      8   6
  759                dfftw_execute                         0.003881                   24   7
  760                map_backward                          0.022221                   16   7
  761                  map_gather                            0.000945                  8   8
  762                  m_alltoallv_z                         0.019410                  8   8
  763                  map_scatter                           0.001823                  8   8
 
 Flat profile
 ============
 
             routine name                   CPU           calls
 ---------------------------------------------------------------
 rpromu_hf                            3281.051585      163840
 racc0mu_hf                           2632.776350      108544
 fock_charge_mu                       2492.397474      108544
 dfftw_execute                        2271.623172    41804961
 vhamil_trace                         1475.544830     6553600
 m_alltoallv_z                        1248.918590    13935383
 map_scatter                           605.528800    13935383
 map_gather                            532.777565    13935383
 apply_gfac_exchange                   253.267419     6553600
 calc_dllmm_trans                      236.281563    11862016
 m_sumb_d                              226.517462    16390679
 fftbas_plan_mpi                       114.341486    13934987
 total_time                             80.201023           1
 fock_set_gfac_vkpt                     59.339060       51200
 fock_fwd                               58.195254         800
 m_ireduce_z_to                         56.948376      102400
 apply_gfac_der                         55.629016      294912
 m_ibcast_z_from                        46.510720      127744
 phaser_hf                              36.151611       54272
 fock_force                             34.328791           3
 fftwav_mpi                             33.382412      229154
 eccp_nl_fock                           30.391394    21233664
 overl_fock                             28.139897     6553600
 eccp                                   19.196528        2976
 vhamil                                 17.374428        1425
 w1_copy                                16.240352      111955
 map_forward                            15.077584    14158138
 spher                                  13.349034         684
 map_backward                           12.490181    13711836
 edwav                                  11.785634          44
 pw_charge                              11.391170        1504
 apply_gfac_weight                       9.384018      294912
 fft3d_mpi                               7.078268    13934987
 m_alltoall_d                            6.955130       29751
 fftbas_mpi                              6.617077    13934987
 potlok                                  6.393430          52
 pdssyex_zheevx                          5.501606         864
 gemm                                    4.421326       45840
 phase                                   3.966898        1907
 lapack                                  3.921721         561
 fock_set_gfac_der                       3.709135        3072
 proj1                                   3.256659        2641
 m_bcast_z                               2.724925        5037
 fock_set_fsg_der                        2.550230           3
 fock_set_fsg                            2.007044           3
 setdij_                                 1.915127         130
 lincom                                  1.741922        2336
 orth1                                   1.671182        4083
 sphpro_fast                             1.567023           4
 set_rsgf_all                            1.542722          54
 augmentation_charge                     1.504252          47
 fornl                                   1.397216           3
 projxyz                                 1.340467          48
 eddiag                                  1.153846          27
 work_mul_crexp                          1.083325       45840
 elmin_all                               1.081335           3
 crexp_mul_wave                          0.930510       42256
 eddav                                   0.850717           5
 w1_dscal                                0.691195         704
 force_and_stress                        0.647007           3
 fock_all_dblbuf                         0.536487          50
 ggemm                                   0.404238         721
 fftext_mpi                              0.339064        6050
 soft_charge                             0.283801          47
 redis_pw                                0.241041        6995
 fock_bck                                0.229464         800
 rspher_all                              0.145554          30
 choleski                                0.136152         768
 fock_ace_acc_apply                      0.119330          96
 kinhamil                                0.113252        1425
 set_charge                              0.083645          47
 hamiltmu                                0.082103         561
 fft_and_gather                          0.076479         848
 w1_dot                                  0.067306         736
 vnlac0                                  0.060420        2865
 overl1                                  0.058603        2161
 wrk_allocate                            0.053007           3
 m_bcast_d                               0.052566        1151
 reduce                                  0.048772         800
 overl                                   0.048343        3202
 apply_precond                           0.040529         401
 densta                                  0.038707          58
 fft_gq                                  0.037498          47
 pothar                                  0.028267          52
 contraction                             0.027803       55296
 brgrid                                  0.025740           1
 redis_proj                              0.019271       12324
 set_dd_paw                              0.015681          54
 depsum                                  0.015471          47
 strkin                                  0.015381           3
 strenl                                  0.013064           3
 strehar                                 0.011132           3
 setup_precond                           0.010800         160
 strelo                                  0.010657           3
 forloc                                  0.010490           3
 forhar                                  0.010404           3
 wavpre_noio                             0.009086           2
 orthch                                  0.008227          47
 w1_daxpy                                0.006509          96
 stufak                                  0.005528           3
 fordep                                  0.004536           3
 hamilt_local                            0.004246         864
 waitgth                                 0.004080         800
 newband                                 0.003878         641
 potlok_metagga                          0.002281          51
 waitred                                 0.002233         800
 rsp                                     0.001281           3
 projlat_der                             0.001276          48
 w1_projall                              0.001144         401
 shift_bands_between_low_high            0.000960          80
 redis_pw_all                            0.000867          44
 fewald                                  0.000617           3
 truncate_high_frequency_w1              0.000378         721
 fock_ace_construct                      0.000377           1
 set_dd_magatom                          0.000138           6
 proj                                    0.000126          48
 wrk_deallocate                          0.000126           3
 rcp                                     0.000107           3
 redis_pw_over_bands                     0.000087          49
 proall                                  0.000062           3
 crpa_reader                             0.000045           1
 rotate_active_occupied_orbital          0.000006           3
 FERMAT_RAZOR                            0.000001           1
 vectorpot                               0.000000           1
 ---------------------------------------------------------------
  summed up times    16098.322793006897     
 
 Accumulative profile
 ====================
 
             routine name                   CPU           calls
 ---------------------------------------------------------------
 total_time                          16098.015120           1
 fock_all_dblbuf                     14379.402169          50
 fock_fwd                            14247.853906         800
 elmin_all                           14021.019079           3
 eddiag                               7779.538134          27
 edwav                                6388.882171          44
 fock_charge_mu                       5157.863192      108544
 fft3d_mpi                            4814.145050    13934987
 fftbas_mpi                           4807.066782    13934987
 fftbas_plan_mpi                      4800.449705    13934987
 rpromu_hf                            3341.155925      163840
 racc0mu_hf                           2665.465718      108544
 dfftw_execute                        2271.623172    41804961
 vhamil_trace                         1475.544830     6553600
 force_and_stress                     1393.463550           3
 fock_force                           1371.343971           3
 map_backward                         1277.189153    13711836
 m_alltoallv_z                        1248.918590    13935383
 map_forward                          1137.603568    14158138
 map_scatter                           605.528800    13935383
 map_gather                            532.777565    13935383
 apply_gfac_exchange                   253.267419     6553600
 calc_dllmm_trans                      236.281563    11862016
 m_sumb_d                              226.517462    16390679
 fftwav_mpi                            128.921538      229154
 set_dd_paw                            100.695037          54
 fock_set_gfac_vkpt                     93.469478       51200
 reduce                                 56.997148         800
 m_ireduce_z_to                         56.948376      102400
 apply_gfac_der                         55.629016      294912
 fft_and_gather                         48.232872         848
 m_ibcast_z_from                        46.510720      127744
 phaser_hf                              36.151611       54272
 eccp_nl_fock                           30.391394    21233664
 overl_fock                             28.139897     6553600
 eddav                                  24.159372           5
 set_charge                             23.725862          47
 soft_charge                            21.492735          47
 eccp                                   19.478138        2976
 vhamil                                 17.374428        1425
 w1_copy                                16.240352      111955
 hamilt_local                           13.682215         864
 spher                                  13.349034         684
 strenl                                 12.905582           3
 pw_charge                              11.391170        1504
 potlok                                 10.922131          52
 hamiltmu                                9.911007         561
 apply_gfac_weight                       9.384018      294912
 m_alltoall_d                            6.955130       29751
 fftext_mpi                              5.992978        6050
 redis_pw                                5.848723        6995
 fock_set_gfac_der                       5.730327        3072
 vnlac0                                  5.690834        2865
 pdssyex_zheevx                          5.501607         864
 kinhamil                                4.820101        1425
 gemm                                    4.421326       45840
 proj1                                   4.287187        2641
 fock_bck                                4.139667         800
 phase                                   3.966898        1907
 lapack                                  3.921721         561
 wrk_allocate                            2.746493           3
 m_bcast_z                               2.724925        5037
 fock_set_fsg_der                        2.556143           3
 projlat_der                             2.439929          48
 newband                                 2.065538         641
 augmentation_charge                     2.038201          47
 fock_set_fsg                            2.023753           3
 setdij_                                 1.960905         130
 lincom                                  1.741922        2336
 sphpro_fast                             1.681170           4
 orth1                                   1.671182        4083
 set_rsgf_all                            1.542722          54
 fornl                                   1.538700           3
 redis_proj                              1.366719       12324
 projxyz                                 1.362272          48
 orthch                                  1.330976          47
 work_mul_crexp                          1.083325       45840
 w1_projall                              1.068977         401
 crexp_mul_wave                          0.930510       42256
 redis_pw_over_bands                     0.788916          49
 redis_pw_all                            0.788829          44
 w1_dscal                                0.691195         704
 ggemm                                   0.404238         721
 fft_gq                                  0.365192          47
 densta                                  0.262417          58
 fock_ace_acc_apply                      0.248079          96
 fordep                                  0.246081           3
 proall                                  0.207021           3
 rspher_all                              0.145554          30
 choleski                                0.136152         768
 depsum                                  0.111281          47
 proj                                    0.101182          48
 w1_dot                                  0.074013         736
 fock_ace_construct                      0.066646           1
 overl1                                  0.058603        2161
 m_bcast_d                               0.052566        1151
 overl                                   0.048343        3202
 pothar                                  0.041672          52
 apply_precond                           0.040529         401
 fewald                                  0.031249           3
 contraction                             0.027803       55296
 brgrid                                  0.025740           1
 strkin                                  0.017894           3
 strehar                                 0.012615           3
 wavpre_noio                             0.012452           2
 setup_precond                           0.012236         160
 forhar                                  0.011099           3
 strelo                                  0.011081           3
 forloc                                  0.010629           3
 w1_daxpy                                0.006509          96
 stufak                                  0.005528           3
 waitgth                                 0.004080         800
 potlok_metagga                          0.002281          51
 waitred                                 0.002233         800
 rsp                                     0.001281           3
 shift_bands_between_low_high            0.000960          80
 truncate_high_frequency_w1              0.000378         721
 set_dd_magatom                          0.000138           6
 wrk_deallocate                          0.000126           3
 rcp                                     0.000107           3
 crpa_reader                             0.000045           1
 rotate_active_occupied_orbital          0.000006           3
 FERMAT_RAZOR                            0.000001           1
 vectorpot                               0.000000           1
 ---------------------------------------------------------------
 
Profiling took  39.455574 29.289246  0.004877  0.004673 seconds
Profiling took  29.284995 seconds
