 vasp.6.3.2 27Jun22 (build Mar 16 2023 13:30:57) complex                         
 executed on        HPECrayEX_GCC date 2024.08.04  18:20:22
 running  256 mpi-ranks, with    1 threads/rank
 distrk:  each k-point on   64 cores,    4 groups
 distr:  one band on NCORE=   2 cores,   32 groups


--------------------------------------------------------------------------------------------------------


 INCAR:
   AEXX = 0.35
   ALGO = All
   EDIFF = 1e-05
   EDIFFG = -0.01
   ENCUT = 770
   HFSCREEN = 0.208
   IBRION = 2
   ICORELEVEL = 0
   ISIF = 3
   ISMEAR = 0
   ISPIN = 0
   ISYM = -1
   KPAR = 4
   LASPH = True
   LHFCALC = True
   LORBIT = 11
   LREAL = False
   LSUBROT = False
   LVHAR = True
   LWAVE = True
   NCORE = 2
   NEDOS = 2000
   NELM = 200
   LSORBIT = TRUE
   NSW = 200
   POTIM = 0.2
   PREC = Accurate
   PRECFOCK = Fast
   SIGMA = 0.05

 POTCAR:    PAW_PBE Te 08Apr2002                  
 POTCAR:    PAW_PBE Pb 08Apr2002                  
 -----------------------------------------------------------------------------
|                                                                             |
|           W    W    AA    RRRRR   N    N  II  N    N   GGGG   !!!           |
|           W    W   A  A   R    R  NN   N  II  NN   N  G    G  !!!           |
|           W    W  A    A  R    R  N N  N  II  N N  N  G       !!!           |
|           W WW W  AAAAAA  RRRRR   N  N N  II  N  N N  G  GGG   !            |
|           WW  WW  A    A  R   R   N   NN  II  N   NN  G    G                |
|           W    W  A    A  R    R  N    N  II  N    N   GGGG   !!!           |
|                                                                             |
|     You use a magnetic or noncollinear calculation, but did not specify     |
|     the initial magnetic moment with the MAGMOM tag. Note that a            |
|     default of 1 will be used for all atoms. This ferromagnetic setup       |
|     may break the symmetry of the crystal, in particular it may rule        |
|     out finding an antiferromagnetic solution. Thence, we recommend         |
|     setting the initial magnetic moment manually or verifying carefully     |
|     that this magnetic setup is desired.                                    |
|                                                                             |
 -----------------------------------------------------------------------------

 POTCAR:    PAW_PBE Te 08Apr2002                  
   VRHFIN =Te: s2p4                                                                                 
   LEXCH  = PE                                                                                      
   EATOM  =   223.2721 eV,   16.4100 Ry                                                             
                                                                                                    
   TITEL  = PAW_PBE Te 08Apr2002                                                                    
   LULTRA =        F    use ultrasoft PP ?                                                          
   IUNSCR =        1    unscreen: 0-lin 1-nonlin 2-no                                               
   RPACOR =    2.200    partial core radius                                                         
   POMASS =  127.600; ZVAL   =    6.000    mass and valenz                                          
   RCORE  =    2.300    outmost cutoff radius                                                       
   RWIGS  =    2.900; RWIGS  =    1.535    wigner-seitz radius (au A)                               
   ENMAX  =  174.982; ENMIN  =  131.236 eV                                                          
   ICORE  =        3    local potential                                                             
   LCOR   =        T    correct aug charges                                                         
   LPAW   =        T    paw PP                                                                      
   EAUG   =  368.792                                                                                
   DEXC   =    0.000                                                                                
   RMAX   =    2.345    core radius for proj-oper                                                   
   RAUG   =    1.300    factor for augmentation sphere                                              
   RDEP   =    2.397    radius for radial grids                                                     
   RDEPT  =    2.174    core radius for aug-charge                                                  
                                                                                                    
   Atomic configuration                                                                             
   13 entries                                                                                       
     n  l   j            E        occ.                                                              
     1  0  0.50    -31621.2075   2.0000                                                             
     2  0  0.50     -4848.7941   2.0000                                                             
     2  1  1.50     -4352.1960   6.0000                                                             
     3  0  0.50      -964.9612   2.0000                                                             
     3  1  1.50      -803.6179   6.0000                                                             
     3  2  2.50      -559.8710  10.0000                                                             
     4  0  0.50      -164.3522   2.0000                                                             
     4  1  1.50      -114.3756   6.0000                                                             
     4  2  2.50       -41.6483  10.0000                                                             
     5  0  0.50       -15.1072   2.0000                                                             
     5  1  0.50        -5.9526   4.0000                                                             
     5  2  1.50        -5.4423   0.0000                                                             
     4  3  2.50        -5.4423   0.0000                                                             
   Description                                                                                      
     l       E           TYP  RCUT    TYP  RCUT                                                     
     0    -15.1072389     23  2.300                                                                 
     0    -16.4678215     23  2.300                                                                 
     1     -5.9526306     23  2.300                                                                 
     1     -2.4873968     23  2.300                                                                 
     2     -5.4423304     23  2.300                                                                 
     3     -1.3605826     23  2.300                                                                 
  local pseudopotential read in
  partial core-charges read in
  partial kinetic energy density read in
  atomic valenz-charges read in
  non local Contribution for L=           0  read in
    real space projection operators read in
  non local Contribution for L=           0  read in
    real space projection operators read in
  non local Contribution for L=           1  read in
    real space projection operators read in
  non local Contribution for L=           1  read in
    real space projection operators read in
  non local Contribution for L=           2  read in
    real space projection operators read in
    PAW grid and wavefunctions read in

   number of l-projection  operators is LMAX  =           5
   number of lm-projection operators is LMMAX =          13

 POTCAR:    PAW_PBE Pb 08Apr2002                  
   VRHFIN =Pb:                                                                                      
   LEXCH  = PE                                                                                      
   EATOM  =    96.9868 eV,    7.1283 Ry                                                             
                                                                                                    
   TITEL  = PAW_PBE Pb 08Apr2002                                                                    
   LULTRA =        F    use ultrasoft PP ?                                                          
   IUNSCR =        1    unscreen: 0-lin 1-nonlin 2-no                                               
   RPACOR =    2.200    partial core radius                                                         
   POMASS =  207.200; ZVAL   =    4.000    mass and valenz                                          
   RCORE  =    3.100    outmost cutoff radius                                                       
   RWIGS  =    3.260; RWIGS  =    1.725    wigner-seitz radius (au A)                               
   ENMAX  =   97.973; ENMIN  =   73.480 eV                                                          
   ICORE  =        3    local potential                                                             
   LCOR   =        T    correct aug charges                                                         
   LPAW   =        T    paw PP                                                                      
   EAUG   =  234.873                                                                                
   DEXC   =    0.000                                                                                
   RMAX   =    3.158    core radius for proj-oper                                                   
   RAUG   =    1.300    factor for augmentation sphere                                              
   RDEP   =    3.202    radius for radial grids                                                     
   RDEPT  =    2.659    core radius for aug-charge                                                  
                                                                                                    
   Atomic configuration                                                                             
   17 entries                                                                                       
     n  l   j            E        occ.                                                              
     1  0  0.50    -88091.8466   2.0000                                                             
     2  0  0.50    -15753.4197   2.0000                                                             
     2  1  1.50    -13508.1797   6.0000                                                             
     3  0  0.50     -3781.7194   2.0000                                                             
     3  1  1.50     -3138.2529   6.0000                                                             
     3  2  2.50     -2483.2977  10.0000                                                             
     4  0  0.50      -856.2895   2.0000                                                             
     4  1  1.50      -645.4943   6.0000                                                             
     4  2  2.50      -401.8768  10.0000                                                             
     4  3  3.50      -132.9059  14.0000                                                             
     5  0  0.50      -144.0950   2.0000                                                             
     5  1  1.50       -85.7879   6.0000                                                             
     5  2  2.50       -21.1769  10.0000                                                             
     6  0  0.50       -12.0372   2.0000                                                             
     6  1  1.50        -3.4971   2.0000                                                             
     6  2  2.50        -1.3606   0.0000                                                             
     5  3  2.50        -2.7212   0.0000                                                             
   Description                                                                                      
     l       E           TYP  RCUT    TYP  RCUT                                                     
     0    -12.0371566     23  3.100                                                                 
     0    -13.3977392     23  3.100                                                                 
     1     -3.4971341     23  3.100                                                                 
     1     -5.4423304     23  3.100                                                                 
     2     -1.3605826     23  3.100                                                                 
     3     -1.3605826     23  3.100                                                                 
  local pseudopotential read in
  partial core-charges read in
  partial kinetic energy density read in
  atomic valenz-charges read in
  non local Contribution for L=           0  read in
    real space projection operators read in
  non local Contribution for L=           0  read in
    real space projection operators read in
  non local Contribution for L=           1  read in
    real space projection operators read in
  non local Contribution for L=           1  read in
    real space projection operators read in
  non local Contribution for L=           2  read in
    real space projection operators read in
    PAW grid and wavefunctions read in

   number of l-projection  operators is LMAX  =           5
   number of lm-projection operators is LMMAX =          13

 WARNING: PSMAXN for non-local potential too small
          PSMAXN should be >   14.216141646966818       NTYP=           2
  PAW_PBE Te 08Apr2002                  :
 energy of atom  1       EATOM= -223.2721
 kinetic energy error for atom=    0.0002 (will be added to EATOM!!)
  PAW_PBE Pb 08Apr2002                  :
 energy of atom  2       EATOM=  -96.9868
 kinetic energy error for atom=    0.0000 (will be added to EATOM!!)


 POSCAR: Te4 Pb4
  positions in direct lattice
  No initial velocities read in
 exchange correlation table for  LEXCH =        8
   RHO(1)=    0.500       N(1)  =     2000
   RHO(2)=  100.500       N(2)  =     4000



--------------------------------------------------------------------------------------------------------


 ion  position               nearest neighbor table
   1  0.000  0.000  0.000-   5 3.27   6 3.27   7 3.27   5 3.27   6 3.27   7 3.27
   2  0.000  0.500  0.500-   5 3.27   6 3.27   8 3.27   6 3.27   5 3.27   8 3.27
   3  0.500  0.000  0.500-   5 3.27   7 3.27   8 3.27   7 3.27   8 3.27   5 3.27
   4  0.500  0.500  0.000-   6 3.27   7 3.27   8 3.27   8 3.27   7 3.27   6 3.27
   5  0.000  0.000  0.500-   1 3.27   2 3.27   3 3.27   1 3.27   2 3.27   3 3.27
   6  0.000  0.500  0.000-   1 3.27   2 3.27   4 3.27   2 3.27   1 3.27   4 3.27
   7  0.500  0.000  0.000-   1 3.27   3 3.27   4 3.27   3 3.27   4 3.27   1 3.27
   8  0.500  0.500  0.500-   2 3.27   3 3.27   4 3.27   4 3.27   3 3.27   2 3.27


IMPORTANT INFORMATION: All symmetrisations will be switched off!
NOSYMM: (Re-)initialisation of all symmetry stuff for point group C_1.


----------------------------------------------------------------------------------------

                                     Primitive cell                                     

  volume of cell :     279.9565

  direct lattice vectors                    reciprocal lattice vectors
     6.541793610  0.000000000  0.000000000     0.152863276 -0.000000000  0.000000000
     0.000000000  6.541793610  0.000000000     0.000000000  0.152863276  0.000000000
     0.000000000  0.000000000  6.541793610    -0.000000000 -0.000000000  0.152863276

  length of vectors
     6.541793610  6.541793610  6.541793610     0.152863276  0.152863276  0.152863276

  position of ions in fractional coordinates (direct lattice)
     0.000000000  0.000000000  0.000000000
     1.000000000  0.500000000  0.500000000
     0.500000000  0.000000000  0.500000000
     0.500000000  0.500000000  0.000000000
     0.000000000  0.000000000  0.500000000
     1.000000000  0.500000000  0.000000000
     0.500000000  0.000000000  0.000000000
     0.500000000  0.500000000  0.500000000

  ion indices of the primitive-cell ions
   primitive index   ion index
                 1           1
                 2           2
                 3           3
                 4           4
                 5           5
                 6           6
                 7           7
                 8           8

----------------------------------------------------------------------------------------



 KPOINTS: Automatic mesh                          

Automatic generation of k-mesh.
 Grid dimensions read from file:
 generate k-points for:    4    4    4

 Generating k-lattice:

  Cartesian coordinates                     Fractional coordinates (reciprocal lattice)
     0.038215819 -0.000000000  0.000000000     0.250000000 -0.000000000  0.000000000
     0.000000000  0.038215819  0.000000000     0.000000000  0.250000000  0.000000000
    -0.000000000 -0.000000000  0.038215819     0.000000000 -0.000000000  0.250000000

  Length of vectors
     0.038215819  0.038215819  0.038215819

  Shift w.r.t. Gamma in fractional coordinates (k-lattice)
     0.000000000  0.000000000  0.000000000

 
 Subroutine IBZKPT returns following result:
 ===========================================
 
 Found     64 irreducible k-points:
 
 Following reciprocal coordinates:
            Coordinates               Weight
  0.000000  0.000000  0.000000      1.000000
  0.250000  0.000000  0.000000      1.000000
  0.500000  0.000000  0.000000      1.000000
 -0.250000  0.000000  0.000000      1.000000
  0.000000  0.250000  0.000000      1.000000
  0.250000  0.250000  0.000000      1.000000
  0.500000  0.250000  0.000000      1.000000
 -0.250000  0.250000  0.000000      1.000000
  0.000000  0.500000  0.000000      1.000000
  0.250000  0.500000  0.000000      1.000000
  0.500000  0.500000  0.000000      1.000000
 -0.250000  0.500000  0.000000      1.000000
  0.000000 -0.250000  0.000000      1.000000
  0.250000 -0.250000  0.000000      1.000000
  0.500000 -0.250000  0.000000      1.000000
 -0.250000 -0.250000  0.000000      1.000000
  0.000000  0.000000  0.250000      1.000000
  0.250000  0.000000  0.250000      1.000000
  0.500000  0.000000  0.250000      1.000000
 -0.250000  0.000000  0.250000      1.000000
  0.000000  0.250000  0.250000      1.000000
  0.250000  0.250000  0.250000      1.000000
  0.500000  0.250000  0.250000      1.000000
 -0.250000  0.250000  0.250000      1.000000
  0.000000  0.500000  0.250000      1.000000
  0.250000  0.500000  0.250000      1.000000
  0.500000  0.500000  0.250000      1.000000
 -0.250000  0.500000  0.250000      1.000000
  0.000000 -0.250000  0.250000      1.000000
  0.250000 -0.250000  0.250000      1.000000
  0.500000 -0.250000  0.250000      1.000000
 -0.250000 -0.250000  0.250000      1.000000
  0.000000  0.000000  0.500000      1.000000
  0.250000  0.000000  0.500000      1.000000
  0.500000  0.000000  0.500000      1.000000
 -0.250000  0.000000  0.500000      1.000000
  0.000000  0.250000  0.500000      1.000000
  0.250000  0.250000  0.500000      1.000000
  0.500000  0.250000  0.500000      1.000000
 -0.250000  0.250000  0.500000      1.000000
  0.000000  0.500000  0.500000      1.000000
  0.250000  0.500000  0.500000      1.000000
  0.500000  0.500000  0.500000      1.000000
 -0.250000  0.500000  0.500000      1.000000
  0.000000 -0.250000  0.500000      1.000000
  0.250000 -0.250000  0.500000      1.000000
  0.500000 -0.250000  0.500000      1.000000
 -0.250000 -0.250000  0.500000      1.000000
  0.000000  0.000000 -0.250000      1.000000
  0.250000  0.000000 -0.250000      1.000000
  0.500000  0.000000 -0.250000      1.000000
 -0.250000  0.000000 -0.250000      1.000000
  0.000000  0.250000 -0.250000      1.000000
  0.250000  0.250000 -0.250000      1.000000
  0.500000  0.250000 -0.250000      1.000000
 -0.250000  0.250000 -0.250000      1.000000
  0.000000  0.500000 -0.250000      1.000000
  0.250000  0.500000 -0.250000      1.000000
  0.500000  0.500000 -0.250000      1.000000
 -0.250000  0.500000 -0.250000      1.000000
  0.000000 -0.250000 -0.250000      1.000000
  0.250000 -0.250000 -0.250000      1.000000
  0.500000 -0.250000 -0.250000      1.000000
 -0.250000 -0.250000 -0.250000      1.000000
 
 Following cartesian coordinates:
            Coordinates               Weight
  0.000000  0.000000  0.000000      1.000000
  0.038216  0.000000  0.000000      1.000000
  0.076432  0.000000  0.000000      1.000000
 -0.038216  0.000000  0.000000      1.000000
  0.000000  0.038216  0.000000      1.000000
  0.038216  0.038216  0.000000      1.000000
  0.076432  0.038216  0.000000      1.000000
 -0.038216  0.038216  0.000000      1.000000
  0.000000  0.076432  0.000000      1.000000
  0.038216  0.076432  0.000000      1.000000
  0.076432  0.076432  0.000000      1.000000
 -0.038216  0.076432  0.000000      1.000000
  0.000000 -0.038216  0.000000      1.000000
  0.038216 -0.038216  0.000000      1.000000
  0.076432 -0.038216  0.000000      1.000000
 -0.038216 -0.038216  0.000000      1.000000
  0.000000  0.000000  0.038216      1.000000
  0.038216  0.000000  0.038216      1.000000
  0.076432  0.000000  0.038216      1.000000
 -0.038216  0.000000  0.038216      1.000000
  0.000000  0.038216  0.038216      1.000000
  0.038216  0.038216  0.038216      1.000000
  0.076432  0.038216  0.038216      1.000000
 -0.038216  0.038216  0.038216      1.000000
  0.000000  0.076432  0.038216      1.000000
  0.038216  0.076432  0.038216      1.000000
  0.076432  0.076432  0.038216      1.000000
 -0.038216  0.076432  0.038216      1.000000
  0.000000 -0.038216  0.038216      1.000000
  0.038216 -0.038216  0.038216      1.000000
  0.076432 -0.038216  0.038216      1.000000
 -0.038216 -0.038216  0.038216      1.000000
  0.000000  0.000000  0.076432      1.000000
  0.038216  0.000000  0.076432      1.000000
  0.076432  0.000000  0.076432      1.000000
 -0.038216  0.000000  0.076432      1.000000
  0.000000  0.038216  0.076432      1.000000
  0.038216  0.038216  0.076432      1.000000
  0.076432  0.038216  0.076432      1.000000
 -0.038216  0.038216  0.076432      1.000000
  0.000000  0.076432  0.076432      1.000000
  0.038216  0.076432  0.076432      1.000000
  0.076432  0.076432  0.076432      1.000000
 -0.038216  0.076432  0.076432      1.000000
  0.000000 -0.038216  0.076432      1.000000
  0.038216 -0.038216  0.076432      1.000000
  0.076432 -0.038216  0.076432      1.000000
 -0.038216 -0.038216  0.076432      1.000000
  0.000000  0.000000 -0.038216      1.000000
  0.038216  0.000000 -0.038216      1.000000
  0.076432  0.000000 -0.038216      1.000000
 -0.038216  0.000000 -0.038216      1.000000
  0.000000  0.038216 -0.038216      1.000000
  0.038216  0.038216 -0.038216      1.000000
  0.076432  0.038216 -0.038216      1.000000
 -0.038216  0.038216 -0.038216      1.000000
  0.000000  0.076432 -0.038216      1.000000
  0.038216  0.076432 -0.038216      1.000000
  0.076432  0.076432 -0.038216      1.000000
 -0.038216  0.076432 -0.038216      1.000000
  0.000000 -0.038216 -0.038216      1.000000
  0.038216 -0.038216 -0.038216      1.000000
  0.076432 -0.038216 -0.038216      1.000000
 -0.038216 -0.038216 -0.038216      1.000000
 
 WARNING: full set of k-points will be restricted to regular points only.

 
 Subroutine IBZKPT_HF returns following result:
 ==============================================
 
 Found     64 k-points in 1st BZ
 the following     64 k-points will be used (e.g. in the exchange kernel)
 Following reciprocal coordinates:   # in IRBZ
  0.000000  0.000000  0.000000    0.01562500   1 t-inv F
  0.250000  0.000000  0.000000    0.01562500   2 t-inv F
  0.500000  0.000000  0.000000    0.01562500   3 t-inv F
 -0.250000  0.000000  0.000000    0.01562500   4 t-inv F
  0.000000  0.250000  0.000000    0.01562500   5 t-inv F
  0.250000  0.250000  0.000000    0.01562500   6 t-inv F
  0.500000  0.250000  0.000000    0.01562500   7 t-inv F
 -0.250000  0.250000  0.000000    0.01562500   8 t-inv F
  0.000000  0.500000  0.000000    0.01562500   9 t-inv F
  0.250000  0.500000  0.000000    0.01562500  10 t-inv F
  0.500000  0.500000  0.000000    0.01562500  11 t-inv F
 -0.250000  0.500000  0.000000    0.01562500  12 t-inv F
  0.000000 -0.250000  0.000000    0.01562500  13 t-inv F
  0.250000 -0.250000  0.000000    0.01562500  14 t-inv F
  0.500000 -0.250000  0.000000    0.01562500  15 t-inv F
 -0.250000 -0.250000  0.000000    0.01562500  16 t-inv F
  0.000000  0.000000  0.250000    0.01562500  17 t-inv F
  0.250000  0.000000  0.250000    0.01562500  18 t-inv F
  0.500000  0.000000  0.250000    0.01562500  19 t-inv F
 -0.250000  0.000000  0.250000    0.01562500  20 t-inv F
  0.000000  0.250000  0.250000    0.01562500  21 t-inv F
  0.250000  0.250000  0.250000    0.01562500  22 t-inv F
  0.500000  0.250000  0.250000    0.01562500  23 t-inv F
 -0.250000  0.250000  0.250000    0.01562500  24 t-inv F
  0.000000  0.500000  0.250000    0.01562500  25 t-inv F
  0.250000  0.500000  0.250000    0.01562500  26 t-inv F
  0.500000  0.500000  0.250000    0.01562500  27 t-inv F
 -0.250000  0.500000  0.250000    0.01562500  28 t-inv F
  0.000000 -0.250000  0.250000    0.01562500  29 t-inv F
  0.250000 -0.250000  0.250000    0.01562500  30 t-inv F
  0.500000 -0.250000  0.250000    0.01562500  31 t-inv F
 -0.250000 -0.250000  0.250000    0.01562500  32 t-inv F
  0.000000  0.000000  0.500000    0.01562500  33 t-inv F
  0.250000  0.000000  0.500000    0.01562500  34 t-inv F
  0.500000  0.000000  0.500000    0.01562500  35 t-inv F
 -0.250000  0.000000  0.500000    0.01562500  36 t-inv F
  0.000000  0.250000  0.500000    0.01562500  37 t-inv F
  0.250000  0.250000  0.500000    0.01562500  38 t-inv F
  0.500000  0.250000  0.500000    0.01562500  39 t-inv F
 -0.250000  0.250000  0.500000    0.01562500  40 t-inv F
  0.000000  0.500000  0.500000    0.01562500  41 t-inv F
  0.250000  0.500000  0.500000    0.01562500  42 t-inv F
  0.500000  0.500000  0.500000    0.01562500  43 t-inv F
 -0.250000  0.500000  0.500000    0.01562500  44 t-inv F
  0.000000 -0.250000  0.500000    0.01562500  45 t-inv F
  0.250000 -0.250000  0.500000    0.01562500  46 t-inv F
  0.500000 -0.250000  0.500000    0.01562500  47 t-inv F
 -0.250000 -0.250000  0.500000    0.01562500  48 t-inv F
  0.000000  0.000000 -0.250000    0.01562500  49 t-inv F
  0.250000  0.000000 -0.250000    0.01562500  50 t-inv F
  0.500000  0.000000 -0.250000    0.01562500  51 t-inv F
 -0.250000  0.000000 -0.250000    0.01562500  52 t-inv F
  0.000000  0.250000 -0.250000    0.01562500  53 t-inv F
  0.250000  0.250000 -0.250000    0.01562500  54 t-inv F
  0.500000  0.250000 -0.250000    0.01562500  55 t-inv F
 -0.250000  0.250000 -0.250000    0.01562500  56 t-inv F
  0.000000  0.500000 -0.250000    0.01562500  57 t-inv F
  0.250000  0.500000 -0.250000    0.01562500  58 t-inv F
  0.500000  0.500000 -0.250000    0.01562500  59 t-inv F
 -0.250000  0.500000 -0.250000    0.01562500  60 t-inv F
  0.000000 -0.250000 -0.250000    0.01562500  61 t-inv F
  0.250000 -0.250000 -0.250000    0.01562500  62 t-inv F
  0.500000 -0.250000 -0.250000    0.01562500  63 t-inv F
 -0.250000 -0.250000 -0.250000    0.01562500  64 t-inv F


--------------------------------------------------------------------------------------------------------




 Dimension of arrays:
   k-points           NKPTS =     64   k-points in BZ     NKDIM =     64   number of bands    NBANDS=     64
   number of dos      NEDOS =   2000   number of ions     NIONS =      8
   non local maximal  LDIM  =      5   non local SUM 2l+1 LMDIM =     13
   total plane-waves  NPLWV = 216000
   max r-space proj   IRMAX =      1   max aug-charges    IRDMAX=  88484
   dimension x,y,z NGX =    60 NGY =   60 NGZ =   60
   dimension x,y,z NGXF=   120 NGYF=  120 NGZF=  120
   support grid    NGXF=   120 NGYF=  120 NGZF=  120
   ions per type =               4   4
   NGX,Y,Z   is equivalent  to a cutoff of  15.25, 15.25, 15.25 a.u.
   NGXF,Y,Z  is equivalent  to a cutoff of  30.50, 30.50, 30.50 a.u.

 SYSTEM =  unknown system                          
 POSCAR =  Te4 Pb4                                 

 Startparameter for this run:
   NWRITE =      2    write-flag & timer
   PREC   = accura    normal or accurate (medium, high low for compatibility)
   ISTART =      0    job   : 0-new  1-cont  2-samecut
   ICHARG =      2    charge: 1-file 2-atom 10-const
   ISPIN  =      1    spin polarized calculation?
   LNONCOLLINEAR =      T non collinear calculations
   LSORBIT =      T    spin-orbit coupling
   INIWAV =      1    electr: 0-lowe 1-rand  2-diag
   LASPH  =      T    aspherical Exc in radial PAW
 Electronic Relaxation 1
   ENCUT  =  770.0 eV  56.59 Ry    7.52 a.u.  14.80 14.80 14.80*2*pi/ulx,y,z
   ENINI  =  770.0     initial cutoff
   ENAUG  =  368.8 eV  augmentation charge cutoff
   NELM   =    200;   NELMIN=  2; NELMDL= -5     # of ELM steps 
   EDIFF  = 0.1E-04   stopping-criterion for ELM
   LREAL  =      F    real-space projection
   NLSPLINE    = F    spline interpolate recip. space projectors
   LCOMPAT=      F    compatible to vasp.4.4
   GGA_COMPAT  = T    GGA compatible to vasp.4.4-vasp.4.6
   LMAXPAW     = -100 max onsite density
   LMAXMIX     =    2 max onsite mixed and CHGCAR
   VOSKOWN=      0    Vosko Wilk Nusair interpolation
   ROPT   =    0.00000   0.00000
 Ionic relaxation
   EDIFFG = -.1E-01   stopping-criterion for IOM
   NSW    =    200    number of steps for IOM
   NBLOCK =      1;   KBLOCK =    200    inner block; outer block 
   IBRION =      2    ionic relax: 0-MD 1-quasi-New 2-CG
   NFREE  =      1    steps in history (QN), initial steepest desc. (CG)
   ISIF   =      3    stress and relaxation
   IWAVPR =     11    prediction:  0-non 1-charg 2-wave 3-comb
   ISYM   =     -1    0-nonsym 1-usesym 2-fastsym
   LCORR  =      T    Harris-Foulkes like correction to forces

   POTIM  = 0.2000    time-step for ionic-motion
   TEIN   =    0.0    initial temperature
   TEBEG  =    0.0;   TEEND  =   0.0 temperature during run
   SMASS  =  -3.00    Nose mass-parameter (am)
   estimated Nose-frequenzy (Omega)   =  0.10E-29 period in steps = 0.31E+47 mass=  -0.978E-27a.u.
   SCALEE = 1.0000    scale energy and forces
   NPACO  =    256;   APACO  = 10.0  distance and # of slots for P.C.
   PSTRESS=    0.0 pullay stress

  Mass of Ions in am
   POMASS = 127.60207.20
  Ionic Valenz
   ZVAL   =   6.00  4.00
  Atomic Wigner-Seitz radii
   RWIGS  =  -1.00 -1.00
  virtual crystal weights 
   VCA    =   1.00  1.00
   NELECT =      40.0000    total number of electrons
   NUPDOWN=      -1.0000    fix difference up-down

 DOS related values:
   EMIN   =  10.00;   EMAX   =-10.00  energy-range for DOS
   EFERMI =   0.00
   ISMEAR =     0;   SIGMA  =   0.05  broadening in eV -4-tet -1-fermi 0-gaus

 Electronic relaxation 2 (details)
   IALGO  =     58    algorithm
   LDIAG  =      T    sub-space diagonalisation (order eigenvalues)
   LSUBROT=      F    optimize rotation matrix (better conditioning)
   TURBO    =      0    0=normal 1=particle mesh
   IRESTART =      0    0=no restart 2=restart with 2 vectors
   NREBOOT  =      0    no. of reboots
   NMIN     =      0    reboot dimension
   EREF     =   0.00    reference energy to select bands
   IMIX   =      4    mixing-type and parameters
     AMIX     =   0.40;   BMIX     =  1.00
     AMIX_MAG =   1.60;   BMIX_MAG =  1.00
     AMIN     =   0.10
     WC   =   100.;   INIMIX=   1;  MIXPRE=   1;  MAXMIX= -45

 Intra band minimization:
   WEIMIN = 0.0010     energy-eigenvalue tresh-hold
   EBREAK =  0.39E-07  absolut break condition
   DEPER  =   0.30     relativ break condition  

   TIME   =   0.40     timestep for ELM

  volume/ion in A,a.u.               =      34.99       236.15
  Fermi-wavevector in a.u.,A,eV,Ry     =   0.855851  1.617323  9.966000  0.732480
  Thomas-Fermi vector in A             =   1.972663

 Write flags
   LWAVE        =      T    write WAVECAR
   LDOWNSAMPLE  =      F    k-point downsampling of WAVECAR
   LCHARG       =      T    write CHGCAR
   LVTOT        =      F    write LOCPOT, total local potential
   LVHAR        =      T    write LOCPOT, Hartree potential only
   LELF         =      F    write electronic localiz. function (ELF)
   LORBIT       =     11    0 simple, 1 ext, 2 COOP (PROOUT), +10 PAW based schemes


 Dipole corrections
   LMONO  =      F    monopole corrections only (constant potential shift)
   LDIPOL =      F    correct potential (dipole corrections)
   IDIPOL =      0    1-x, 2-y, 3-z, 4-all directions 
   EPSILON=  1.0000000 bulk dielectric constant

 Exchange correlation treatment:
   GGA     =    --    GGA type
   LEXCH   =     8    internal setting for exchange type
   LIBXC   =     F    Libxc                    
   VOSKOWN =     0    Vosko Wilk Nusair interpolation
   EXXOEP  =     0    0=HF, 1=EXX-LHF (local Hartree Fock) 2=EXX OEP
   LHFCALC =     T    Hartree Fock is set to
   LSYMGRAD=     F    symmetrize gradient (conserves proper symmetry)
   PRECFOCK=fast      Normal, Fast or Accurate (Low or Medium for compatibility)
   LRHFCALC=     F    long range Hartree Fock
   LRSCOR  =     F    long range correlation only (use DFT for short range part)
   LTHOMAS =     F    Thomas Fermi screening in HF
   LMODELHF=     F    short range full HF, long range fraction AEXX
   FOCKCORR=     1    mode to apply convergence corrections
   LFOCKACE=     T    use Adeptively-Compressed-Exchange operator
   ENCUT4O =  -1.0   cutoff for four orbital integrals eV
   LMAXFOCK=     4    L truncation for augmentation on plane wave grid
   LMAXFOCKAE=  -1    L truncation for all-electron charge restoration on plane wave grid
   NMAXFOCKAE=   1    number of basis functions for all-electron charge restoration
   LFOCKAEDFT=     F  apply the AE augmentation even for DFT
   NKREDX  =     1    reduce k-point grid by
   NKREDY  =     1    reduce k-point grid by
   NKREDZ  =     1    reduce k-point grid by
   SHIFTRED=     F    shift reduced grid of Gamma
   HFKIDENT=     F    idential grid for each k-point
   ODDONLY =     F    use only odd q-grid points
   EVENONLY=     F    use only even q-grid points
   HFALPHA =   -1.0000 decay constant for conv. correction
   MCALPHA =    0.0000 extent of test-charge in conv. correction in multipole expansion
   AEXX    =    0.3500 exact exchange contribution
   HFSCREEN=    0.2080 screening length (either q_TF or 0.3 A-1)
   HFSCREENC=   0.2080 screening length for correlation (either q_TF or 0.3 A-1)
   HFRCUT  =    0.0000 spherical cutoff for potential kernel
   ALDAX   =    0.6500 LDA exchange part
   AGGAX   =    0.6500 GGA exchange part
   ALDAC   =    1.0000 LDA correlation
   AGGAC   =    1.0000 GGA correlation
   ENCUTFOCK=  -1.0 apply spherical cutoff to Coloumb kernel
   NBANDSGWLOW=     1    first orbital included in HF term
   NBLOCK_FOCK=    64    blocking factor in FOCK_ACC

 Linear response parameters
   LEPSILON=     F    determine dielectric tensor
   LRPA    =     F    only Hartree local field effects (RPA)
   LNABLA  =     F    use nabla operator in PAW spheres
   LVEL    =     F    velocity operator in full k-point grid
   CSHIFT  =0.1000    complex shift for real part using Kramers Kronig
   OMEGAMAX=  -1.0    maximum frequency
   DEG_THRESHOLD= 0.2000000E-02 threshold for treating states as degnerate
   RTIME   =   -0.100 relaxation time in fs
  (WPLASMAI=    0.000 imaginary part of plasma frequency in eV, 0.658/RTIME)
   DFIELD  = 0.0000000 0.0000000 0.0000000 field for delta impulse in time

  Optional k-point grid parameters
   LKPOINTS_OPT  =     F    use optional k-point grid
   KPOINTS_OPT_MODE=     1    mode for optional k-point grid

 Orbital magnetization related:
   ORBITALMAG=     F  switch on orbital magnetization
   LCHIMAG   =     F  perturbation theory with respect to B field
   DQ        =  0.001000  dq finite difference perturbation B field
   LLRAUG    =     F  two centre corrections for induced B field



--------------------------------------------------------------------------------------------------------


 conjugate gradient relaxation of ions
 charge density and potential will be updated during run
 non collinear spin polarized calculation
 Conjugate gradient for all bands (Freysoldt, et al. PRB 79, 241103 (2009))
 preconditioned conjugated gradient                                        
 perform sub-space diagonalisation
    before iterative eigenvector-optimisation
 modified Broyden-mixing scheme, WC =      100.0
 initial mixing is a Kerker type mixing with AMIX =  0.4000 and BMIX =      1.0000
 Hartree-type preconditioning will be used
 using additional bands           44
 reciprocal scheme for non local part
 use partial core corrections
 no Harris-corrections to forces 
 use gradient corrections 
 use of overlap-Matrix (Vanderbilt PP)
 Gauss-broadening in eV      SIGMA  =   0.05


--------------------------------------------------------------------------------------------------------


  energy-cutoff  :      770.00
  volume of cell :      279.96
      direct lattice vectors                 reciprocal lattice vectors
     6.541793610  0.000000000  0.000000000     0.152863276 -0.000000000  0.000000000
     0.000000000  6.541793610  0.000000000     0.000000000  0.152863276  0.000000000
     0.000000000  0.000000000  6.541793610    -0.000000000 -0.000000000  0.152863276

  length of vectors
     6.541793610  6.541793610  6.541793610     0.152863276  0.152863276  0.152863276



 k-points in units of 2pi/SCALE and weight: Automatic mesh                          
   0.00000000  0.00000000  0.00000000       0.016
   0.03821582  0.00000000  0.00000000       0.016
   0.07643164  0.00000000  0.00000000       0.016
  -0.03821582  0.00000000  0.00000000       0.016
   0.00000000  0.03821582  0.00000000       0.016
   0.03821582  0.03821582  0.00000000       0.016
   0.07643164  0.03821582  0.00000000       0.016
  -0.03821582  0.03821582  0.00000000       0.016
   0.00000000  0.07643164  0.00000000       0.016
   0.03821582  0.07643164  0.00000000       0.016
   0.07643164  0.07643164  0.00000000       0.016
  -0.03821582  0.07643164  0.00000000       0.016
   0.00000000 -0.03821582  0.00000000       0.016
   0.03821582 -0.03821582  0.00000000       0.016
   0.07643164 -0.03821582  0.00000000       0.016
  -0.03821582 -0.03821582  0.00000000       0.016
   0.00000000  0.00000000  0.03821582       0.016
   0.03821582  0.00000000  0.03821582       0.016
   0.07643164  0.00000000  0.03821582       0.016
  -0.03821582  0.00000000  0.03821582       0.016
   0.00000000  0.03821582  0.03821582       0.016
   0.03821582  0.03821582  0.03821582       0.016
   0.07643164  0.03821582  0.03821582       0.016
  -0.03821582  0.03821582  0.03821582       0.016
   0.00000000  0.07643164  0.03821582       0.016
   0.03821582  0.07643164  0.03821582       0.016
   0.07643164  0.07643164  0.03821582       0.016
  -0.03821582  0.07643164  0.03821582       0.016
   0.00000000 -0.03821582  0.03821582       0.016
   0.03821582 -0.03821582  0.03821582       0.016
   0.07643164 -0.03821582  0.03821582       0.016
  -0.03821582 -0.03821582  0.03821582       0.016
   0.00000000  0.00000000  0.07643164       0.016
   0.03821582  0.00000000  0.07643164       0.016
   0.07643164  0.00000000  0.07643164       0.016
  -0.03821582  0.00000000  0.07643164       0.016
   0.00000000  0.03821582  0.07643164       0.016
   0.03821582  0.03821582  0.07643164       0.016
   0.07643164  0.03821582  0.07643164       0.016
  -0.03821582  0.03821582  0.07643164       0.016
   0.00000000  0.07643164  0.07643164       0.016
   0.03821582  0.07643164  0.07643164       0.016
   0.07643164  0.07643164  0.07643164       0.016
  -0.03821582  0.07643164  0.07643164       0.016
   0.00000000 -0.03821582  0.07643164       0.016
   0.03821582 -0.03821582  0.07643164       0.016
   0.07643164 -0.03821582  0.07643164       0.016
  -0.03821582 -0.03821582  0.07643164       0.016
   0.00000000  0.00000000 -0.03821582       0.016
   0.03821582  0.00000000 -0.03821582       0.016
   0.07643164  0.00000000 -0.03821582       0.016
  -0.03821582  0.00000000 -0.03821582       0.016
   0.00000000  0.03821582 -0.03821582       0.016
   0.03821582  0.03821582 -0.03821582       0.016
   0.07643164  0.03821582 -0.03821582       0.016
  -0.03821582  0.03821582 -0.03821582       0.016
   0.00000000  0.07643164 -0.03821582       0.016
   0.03821582  0.07643164 -0.03821582       0.016
   0.07643164  0.07643164 -0.03821582       0.016
  -0.03821582  0.07643164 -0.03821582       0.016
   0.00000000 -0.03821582 -0.03821582       0.016
   0.03821582 -0.03821582 -0.03821582       0.016
   0.07643164 -0.03821582 -0.03821582       0.016
  -0.03821582 -0.03821582 -0.03821582       0.016

 k-points in reciprocal lattice and weights: Automatic mesh                          
   0.00000000  0.00000000  0.00000000       0.016
   0.25000000  0.00000000  0.00000000       0.016
   0.50000000  0.00000000  0.00000000       0.016
  -0.25000000  0.00000000  0.00000000       0.016
   0.00000000  0.25000000  0.00000000       0.016
   0.25000000  0.25000000  0.00000000       0.016
   0.50000000  0.25000000  0.00000000       0.016
  -0.25000000  0.25000000  0.00000000       0.016
   0.00000000  0.50000000  0.00000000       0.016
   0.25000000  0.50000000  0.00000000       0.016
   0.50000000  0.50000000  0.00000000       0.016
  -0.25000000  0.50000000  0.00000000       0.016
   0.00000000 -0.25000000  0.00000000       0.016
   0.25000000 -0.25000000  0.00000000       0.016
   0.50000000 -0.25000000  0.00000000       0.016
  -0.25000000 -0.25000000  0.00000000       0.016
   0.00000000  0.00000000  0.25000000       0.016
   0.25000000  0.00000000  0.25000000       0.016
   0.50000000  0.00000000  0.25000000       0.016
  -0.25000000  0.00000000  0.25000000       0.016
   0.00000000  0.25000000  0.25000000       0.016
   0.25000000  0.25000000  0.25000000       0.016
   0.50000000  0.25000000  0.25000000       0.016
  -0.25000000  0.25000000  0.25000000       0.016
   0.00000000  0.50000000  0.25000000       0.016
   0.25000000  0.50000000  0.25000000       0.016
   0.50000000  0.50000000  0.25000000       0.016
  -0.25000000  0.50000000  0.25000000       0.016
   0.00000000 -0.25000000  0.25000000       0.016
   0.25000000 -0.25000000  0.25000000       0.016
   0.50000000 -0.25000000  0.25000000       0.016
  -0.25000000 -0.25000000  0.25000000       0.016
   0.00000000  0.00000000  0.50000000       0.016
   0.25000000  0.00000000  0.50000000       0.016
   0.50000000  0.00000000  0.50000000       0.016
  -0.25000000  0.00000000  0.50000000       0.016
   0.00000000  0.25000000  0.50000000       0.016
   0.25000000  0.25000000  0.50000000       0.016
   0.50000000  0.25000000  0.50000000       0.016
  -0.25000000  0.25000000  0.50000000       0.016
   0.00000000  0.50000000  0.50000000       0.016
   0.25000000  0.50000000  0.50000000       0.016
   0.50000000  0.50000000  0.50000000       0.016
  -0.25000000  0.50000000  0.50000000       0.016
   0.00000000 -0.25000000  0.50000000       0.016
   0.25000000 -0.25000000  0.50000000       0.016
   0.50000000 -0.25000000  0.50000000       0.016
  -0.25000000 -0.25000000  0.50000000       0.016
   0.00000000  0.00000000 -0.25000000       0.016
   0.25000000  0.00000000 -0.25000000       0.016
   0.50000000  0.00000000 -0.25000000       0.016
  -0.25000000  0.00000000 -0.25000000       0.016
   0.00000000  0.25000000 -0.25000000       0.016
   0.25000000  0.25000000 -0.25000000       0.016
   0.50000000  0.25000000 -0.25000000       0.016
  -0.25000000  0.25000000 -0.25000000       0.016
   0.00000000  0.50000000 -0.25000000       0.016
   0.25000000  0.50000000 -0.25000000       0.016
   0.50000000  0.50000000 -0.25000000       0.016
  -0.25000000  0.50000000 -0.25000000       0.016
   0.00000000 -0.25000000 -0.25000000       0.016
   0.25000000 -0.25000000 -0.25000000       0.016
   0.50000000 -0.25000000 -0.25000000       0.016
  -0.25000000 -0.25000000 -0.25000000       0.016

 position of ions in fractional coordinates (direct lattice) 
   0.00000000  0.00000000  0.00000000
   0.00000000  0.50000000  0.50000000
   0.50000000  0.00000000  0.50000000
   0.50000000  0.50000000  0.00000000
   0.00000000  0.00000000  0.50000000
   0.00000000  0.50000000  0.00000000
   0.50000000  0.00000000  0.00000000
   0.50000000  0.50000000  0.50000000

 position of ions in cartesian coordinates  (Angst):
   0.00000000  0.00000000  0.00000000
   0.00000000  3.27089681  3.27089681
   3.27089681  0.00000000  3.27089681
   3.27089681  3.27089681  0.00000000
   0.00000000  0.00000000  3.27089681
   0.00000000  3.27089681  0.00000000
   3.27089681  0.00000000  0.00000000
   3.27089681  3.27089681  3.27089681

 Euler angles ALPHA=     0.0000000  BETA=     0.0000000

 transformation matrix from SAXIS to cartesian coordinates
 ---------------------------------------------------------
     1.0000000 m_x    -0.0000000 m_y     0.0000000 m_z
     0.0000000 m_x     1.0000000 m_y     0.0000000 m_z
    -0.0000000 m_x     0.0000000 m_y     1.0000000 m_z

 transformation matrix from cartesian coordinates to SAXIS
 ---------------------------------------------------------
     1.0000000 m_x     0.0000000 m_y    -0.0000000 m_z
    -0.0000000 m_x     1.0000000 m_y     0.0000000 m_z
     0.0000000 m_x     0.0000000 m_y     1.0000000 m_z




--------------------------------------------------------------------------------------------------------


 k-point   1 :   0.0000 0.0000 0.0000  plane waves:   27226
 k-point   2 :   0.2500 0.0000 0.0000  plane waves:   27148
 k-point   3 :   0.5000 0.0000 0.0000  plane waves:   27116
 k-point   4 :  -0.2500 0.0000 0.0000  plane waves:   27148
 k-point   5 :   0.0000 0.2500 0.0000  plane waves:   27148
 k-point   6 :   0.2500 0.2500 0.0000  plane waves:   27070
 k-point   7 :   0.5000 0.2500 0.0000  plane waves:   27192
 k-point   8 :  -0.2500 0.2500 0.0000  plane waves:   27070
 k-point   9 :   0.0000 0.5000 0.0000  plane waves:   27116
 k-point  10 :   0.2500 0.5000 0.0000  plane waves:   27192
 k-point  11 :   0.5000 0.5000 0.0000  plane waves:   27184
 k-point  12 :  -0.2500 0.5000 0.0000  plane waves:   27192
 k-point  13 :   0.0000-0.2500 0.0000  plane waves:   27148
 k-point  14 :   0.2500-0.2500 0.0000  plane waves:   27070
 k-point  15 :   0.5000-0.2500 0.0000  plane waves:   27192
 k-point  16 :  -0.2500-0.2500 0.0000  plane waves:   27070
 k-point  17 :   0.0000 0.0000 0.2500  plane waves:   27148
 k-point  18 :   0.2500 0.0000 0.2500  plane waves:   27070
 k-point  19 :   0.5000 0.0000 0.2500  plane waves:   27192
 k-point  20 :  -0.2500 0.0000 0.2500  plane waves:   27070
 k-point  21 :   0.0000 0.2500 0.2500  plane waves:   27070
 k-point  22 :   0.2500 0.2500 0.2500  plane waves:   27154
 k-point  23 :   0.5000 0.2500 0.2500  plane waves:   27144
 k-point  24 :  -0.2500 0.2500 0.2500  plane waves:   27154
 k-point  25 :   0.0000 0.5000 0.2500  plane waves:   27192
 k-point  26 :   0.2500 0.5000 0.2500  plane waves:   27144
 k-point  27 :   0.5000 0.5000 0.2500  plane waves:   27208
 k-point  28 :  -0.2500 0.5000 0.2500  plane waves:   27144
 k-point  29 :   0.0000-0.2500 0.2500  plane waves:   27070
 k-point  30 :   0.2500-0.2500 0.2500  plane waves:   27154
 k-point  31 :   0.5000-0.2500 0.2500  plane waves:   27144
 k-point  32 :  -0.2500-0.2500 0.2500  plane waves:   27154
 k-point  33 :   0.0000 0.0000 0.5000  plane waves:   27116
 k-point  34 :   0.2500 0.0000 0.5000  plane waves:   27192
 k-point  35 :   0.5000 0.0000 0.5000  plane waves:   27184
 k-point  36 :  -0.2500 0.0000 0.5000  plane waves:   27192
 k-point  37 :   0.0000 0.2500 0.5000  plane waves:   27192
 k-point  38 :   0.2500 0.2500 0.5000  plane waves:   27144
 k-point  39 :   0.5000 0.2500 0.5000  plane waves:   27208
 k-point  40 :  -0.2500 0.2500 0.5000  plane waves:   27144
 k-point  41 :   0.0000 0.5000 0.5000  plane waves:   27184
 k-point  42 :   0.2500 0.5000 0.5000  plane waves:   27208
 k-point  43 :   0.5000 0.5000 0.5000  plane waves:   27408
 k-point  44 :  -0.2500 0.5000 0.5000  plane waves:   27208
 k-point  45 :   0.0000-0.2500 0.5000  plane waves:   27192
 k-point  46 :   0.2500-0.2500 0.5000  plane waves:   27144
 k-point  47 :   0.5000-0.2500 0.5000  plane waves:   27208
 k-point  48 :  -0.2500-0.2500 0.5000  plane waves:   27144
 k-point  49 :   0.0000 0.0000-0.2500  plane waves:   27148
 k-point  50 :   0.2500 0.0000-0.2500  plane waves:   27070
 k-point  51 :   0.5000 0.0000-0.2500  plane waves:   27192
 k-point  52 :  -0.2500 0.0000-0.2500  plane waves:   27070
 k-point  53 :   0.0000 0.2500-0.2500  plane waves:   27070
 k-point  54 :   0.2500 0.2500-0.2500  plane waves:   27154
 k-point  55 :   0.5000 0.2500-0.2500  plane waves:   27144
 k-point  56 :  -0.2500 0.2500-0.2500  plane waves:   27154
 k-point  57 :   0.0000 0.5000-0.2500  plane waves:   27192
 k-point  58 :   0.2500 0.5000-0.2500  plane waves:   27144
 k-point  59 :   0.5000 0.5000-0.2500  plane waves:   27208
 k-point  60 :  -0.2500 0.5000-0.2500  plane waves:   27144
 k-point  61 :   0.0000-0.2500-0.2500  plane waves:   27070
 k-point  62 :   0.2500-0.2500-0.2500  plane waves:   27154
 k-point  63 :   0.5000-0.2500-0.2500  plane waves:   27144
 k-point  64 :  -0.2500-0.2500-0.2500  plane waves:   27154

 maximum and minimum number of plane-waves per node :     13944    13384

 maximum number of plane-waves:     27408
 maximum index in each direction: 
   IXMAX=   15   IYMAX=   15   IZMAX=   15
   IXMIN=  -15   IYMIN=  -15   IZMIN=  -15


 parallel 3D FFT for wavefunctions:
    minimum data exchange during FFTs selected (reduces bandwidth)
 parallel 3D FFT for charge:
    minimum data exchange during FFTs selected (reduces bandwidth)


 FFT grid for exact exchange (Hartree Fock) 
  NGX = 32; NGY = 32; NGZ = 32


 Radii for the augmentation spheres in the non-local exchange
 for species   1 augmentation radius   1.606 (default was   1.190)
       energy cutoff for augmentation   3080.0
 for species   2 augmentation radius   2.013 (default was   1.491)
       energy cutoff for augmentation   3080.0

 real space projection operators:
  total allocation   :       4623.44 KBytes
  max/ min on nodes  :       2320.31       2303.12

 Maximum index for augmentation-charges in exchange         1949
  SETUP_FOCK is finished

 total amount of memory used by VASP MPI-rank0   237010. kBytes
=======================================================================

   base      :      30000. kBytes
   nonl-proj :      91607. kBytes
   fftplans  :       6551. kBytes
   grid      :      20736. kBytes
   one-center:        129. kBytes
   HF        :         67. kBytes
   nonlr-proj:       3380. kBytes
   wavefun   :      84540. kBytes

     INWAV:  cpu time      0.0001: real time      0.0001
 Broyden mixing: mesh for mixing (old mesh)
   NGX = 29   NGY = 29   NGZ = 29
  (NGX  =120   NGY  =120   NGZ  =120)
  gives a total of  24389 points

 initial charge density was supplied:
 charge density of overlapping atoms calculated
 number of electron      40.0000000 magnetization       8.0000000      8.0000000      8.0000000
 keeping initial charge density in first step


--------------------------------------------------------------------------------------------------------


 Maximum index for augmentation-charges         2361 (set IRDMAX)


--------------------------------------------------------------------------------------------------------


 First call to EWALD:  gamma=   0.271
 Maximum number of real-space cells 3x 3x 3
 Maximum number of reciprocal cells 3x 3x 3

    FEWALD:  cpu time      0.0339: real time      0.0339


--------------------------------------- Iteration      1(   1)  ---------------------------------------


    POTLOK:  cpu time      0.1749: real time      0.1757
    SETDIJ:  cpu time      0.6673: real time      0.6679
    TRIAL :  cpu time      3.8082: real time      3.8187
    CORREC:  cpu time      0.0027: real time      0.0027
    --------------------------------------------
      LOOP:  cpu time      4.7096: real time      4.7216

 eigenvalue-minimisations  :  8192
 total energy-change (2. order) :-0.2055306E+05  (-0.1968252E+04)
 number of electron      40.0000000 magnetization       8.0000000      8.0000000      8.0000000
 augmentation part       40.0000000 magnetization       8.0000000      8.0000000      8.0000000

 Free energy of the ion-electron system (eV)
  ---------------------------------------------------
  alpha Z        PSCENC =        15.50309534
  Ewald energy   TEWEN  =     -1279.86501545
  -Hartree energ DENC   =       -78.89665279
  -exchange      EXHF   =         0.00000000
  -V(xc)+E(xc)   XCENC  =      -626.15961417
  PAW double counting   =      1628.52707375   -21646.92004559
  entropy T*S    EENTRO =        -0.00503524
  eigenvalues    EBANDS =       167.67777603
  atomic energy  EATOM  =      1267.07504369
  ---------------------------------------------------
  free energy    TOTEN  =    -20553.06337444 eV

  energy without entropy =   -20553.05833920  energy(sigma->0) =   -20553.06085682
  exchange ACFDT corr.  =         0.00000000  see jH, gK, PRB 81, 115126


--------------------------------------------------------------------------------------------------------




--------------------------------------- Iteration      1(   2)  ---------------------------------------


    TRIAL :  cpu time      5.3907: real time      5.3932
    CORREC:  cpu time      0.0011: real time      0.0011
    --------------------------------------------
      LOOP:  cpu time      5.4053: real time      5.4224

 eigenvalue-minimisations  : 11680
 total energy-change (2. order) :-0.2351879E+03  (-0.2296204E+03)
 number of electron      40.0000000 magnetization       8.0000000      8.0000000      8.0000000
 augmentation part       40.0000000 magnetization       8.0000000      8.0000000      8.0000000

 Free energy of the ion-electron system (eV)
  ---------------------------------------------------
  alpha Z        PSCENC =        15.50309534
  Ewald energy   TEWEN  =     -1279.86501545
  -Hartree energ DENC   =       -78.89665279
  -exchange      EXHF   =         0.00000000
  -V(xc)+E(xc)   XCENC  =      -626.15961417
  PAW double counting   =      1628.52707375   -21646.92004559
  entropy T*S    EENTRO =        -0.00194498
  eigenvalues    EBANDS =       -67.51323124
  atomic energy  EATOM  =      1267.07504369
  ---------------------------------------------------
  free energy    TOTEN  =    -20788.25129145 eV

  energy without entropy =   -20788.24934647  energy(sigma->0) =   -20788.25031896
  exchange ACFDT corr.  =         0.00000000  see jH, gK, PRB 81, 115126


--------------------------------------------------------------------------------------------------------




--------------------------------------- Iteration      1(   3)  ---------------------------------------


    TRIAL :  cpu time      5.5530: real time      5.5565
    CORREC:  cpu time      0.0012: real time      0.0012
    --------------------------------------------
      LOOP:  cpu time      5.5706: real time      5.5873

 eigenvalue-minimisations  : 12000
 total energy-change (2. order) :-0.2095175E+02  (-0.2081697E+02)
 number of electron      40.0000000 magnetization       8.0000000      8.0000000      8.0000000
 augmentation part       40.0000000 magnetization       8.0000000      8.0000000      8.0000000

 Free energy of the ion-electron system (eV)
  ---------------------------------------------------
  alpha Z        PSCENC =        15.50309534
  Ewald energy   TEWEN  =     -1279.86501545
  -Hartree energ DENC   =       -78.89665279
  -exchange      EXHF   =         0.00000000
  -V(xc)+E(xc)   XCENC  =      -626.15961417
  PAW double counting   =      1628.52707375   -21646.92004559
  entropy T*S    EENTRO =        -0.00116833
  eigenvalues    EBANDS =       -88.46575825
  atomic energy  EATOM  =      1267.07504369
  ---------------------------------------------------
  free energy    TOTEN  =    -20809.20304182 eV

  energy without entropy =   -20809.20187349  energy(sigma->0) =   -20809.20245765
  exchange ACFDT corr.  =         0.00000000  see jH, gK, PRB 81, 115126


--------------------------------------------------------------------------------------------------------




--------------------------------------- Iteration      1(   4)  ---------------------------------------


    TRIAL :  cpu time      5.3462: real time      5.3494
    CORREC:  cpu time      0.0013: real time      0.0013
    --------------------------------------------
      LOOP:  cpu time      5.3657: real time      5.3795

 eigenvalue-minimisations  : 11808
 total energy-change (2. order) :-0.7859148E+00  (-0.7856030E+00)
 number of electron      40.0000000 magnetization       8.0000000      8.0000000      8.0000000
 augmentation part       40.0000000 magnetization       8.0000000      8.0000000      8.0000000

 Free energy of the ion-electron system (eV)
  ---------------------------------------------------
  alpha Z        PSCENC =        15.50309534
  Ewald energy   TEWEN  =     -1279.86501545
  -Hartree energ DENC   =       -78.89665279
  -exchange      EXHF   =         0.00000000
  -V(xc)+E(xc)   XCENC  =      -626.15961417
  PAW double counting   =      1628.52707375   -21646.92004559
  entropy T*S    EENTRO =        -0.00116364
  eigenvalues    EBANDS =       -89.25167771
  atomic energy  EATOM  =      1267.07504369
  ---------------------------------------------------
  free energy    TOTEN  =    -20809.98895658 eV

  energy without entropy =   -20809.98779294  energy(sigma->0) =   -20809.98837476
  exchange ACFDT corr.  =         0.00000000  see jH, gK, PRB 81, 115126


--------------------------------------------------------------------------------------------------------




--------------------------------------- Iteration      1(   5)  ---------------------------------------


    POTLOK:  cpu time      0.2079: real time      0.2079
    SETDIJ:  cpu time      1.9316: real time      1.9331
    TRIAL :  cpu time    281.6637: real time    281.8768
    CORREC:  cpu time      0.0011: real time      0.0011
    CHARGE:  cpu time      0.5587: real time      0.5598
    --------------------------------------------
      LOOP:  cpu time    284.3771: real time    284.6089

 eigenvalue-minimisations  :  8192
 total energy-change (2. order) : 0.2077321E+05  (-0.5313637E+01)
 number of electron      40.0000002 magnetization       0.0301325      0.0301372      0.0301430
 augmentation part      -10.2813479 magnetization       0.0787197      0.0788015      0.0787240

 Free energy of the ion-electron system (eV)
  ---------------------------------------------------
  alpha Z        PSCENC =        15.50309534
  Ewald energy   TEWEN  =     -1279.86501545
  -Hartree energ DENC   =       -78.89665279
  -exchange      EXHF   =        72.56470729
  -V(xc)+E(xc)   XCENC  =      -450.17308539
  PAW double counting   =      1449.99564529     -955.04352290
  entropy T*S    EENTRO =        -0.00000000
  eigenvalues    EBANDS =       -77.94128018
  atomic energy  EATOM  =      1267.07504369
  ---------------------------------------------------
  free energy    TOTEN  =       -36.78106511 eV

  energy without entropy =      -36.78106511  energy(sigma->0) =      -36.78106511
  exchange ACFDT corr.  =        -0.00083183  see jH, gK, PRB 81, 115126


--------------------------------------------------------------------------------------------------------




--------------------------------------- Iteration      1(   6)  ---------------------------------------


    POTLOK:  cpu time      0.2043: real time      0.2043
    SETDIJ:  cpu time      1.9249: real time      1.9255
    TRIAL :  cpu time    280.2730: real time    280.4853
    CORREC:  cpu time    282.1691: real time    282.3841
    CHARGE:  cpu time      0.4859: real time      0.4859
    --------------------------------------------
      LOOP:  cpu time    565.0767: real time    565.5207

 eigenvalue-minimisations  :     0
 total energy-change (2. order) :-0.6912500E+00  (-0.1404894E+01)
 number of electron      40.0000002 magnetization       0.0251074      0.0250960      0.0250801
 augmentation part       -9.9386836 magnetization       0.0441418      0.0442251      0.0442274

 Free energy of the ion-electron system (eV)
  ---------------------------------------------------
  alpha Z        PSCENC =        15.50309534
  Ewald energy   TEWEN  =     -1279.86501545
  -Hartree energ DENC   =      -103.61602015
  -exchange      EXHF   =        71.02796040
  -V(xc)+E(xc)   XCENC  =      -450.19324051
  PAW double counting   =     17472.72967091   -16977.98323403
  entropy T*S    EENTRO =        -0.00000001
  eigenvalues    EBANDS =       -52.15057528
  atomic energy  EATOM  =      1267.07504369
  ---------------------------------------------------
  free energy    TOTEN  =       -37.47231509 eV

  energy without entropy =      -37.47231508  energy(sigma->0) =      -37.47231509
  exchange ACFDT corr.  =        -0.00000000  see jH, gK, PRB 81, 115126


--------------------------------------------------------------------------------------------------------




--------------------------------------- Iteration      1(   7)  ---------------------------------------


    POTLOK:  cpu time      0.2035: real time      0.2037
    SETDIJ:  cpu time      1.9326: real time      1.9334
    TRIAL :  cpu time    280.2740: real time    280.4852
    CORREC:  cpu time    283.0554: real time    283.2646
    CHARGE:  cpu time      0.4826: real time      0.4831
    --------------------------------------------
      LOOP:  cpu time    565.9644: real time    566.4014

 eigenvalue-minimisations  :     0
 total energy-change (2. order) :-0.1402827E+01  (-0.2983073E+00)
 number of electron      40.0000002 magnetization       0.0141847      0.0141787      0.0141639
 augmentation part       -9.8390083 magnetization       0.0086869      0.0087352      0.0087385

 Free energy of the ion-electron system (eV)
  ---------------------------------------------------
  alpha Z        PSCENC =        15.50309534
  Ewald energy   TEWEN  =     -1279.86501545
  -Hartree energ DENC   =       -88.98005228
  -exchange      EXHF   =        69.39197370
  -V(xc)+E(xc)   XCENC  =      -450.49171306
  PAW double counting   =     14119.26180448   -13624.20688788
  entropy T*S    EENTRO =        -0.00000000
  eigenvalues    EBANDS =       -66.56339021
  atomic energy  EATOM  =      1267.07504369
  ---------------------------------------------------
  free energy    TOTEN  =       -38.87514169 eV

  energy without entropy =      -38.87514169  energy(sigma->0) =      -38.87514169
  exchange ACFDT corr.  =        -0.00000000  see jH, gK, PRB 81, 115126


--------------------------------------------------------------------------------------------------------




--------------------------------------- Iteration      1(   8)  ---------------------------------------


    POTLOK:  cpu time      0.2047: real time      0.2047
    SETDIJ:  cpu time      1.9089: real time      1.9097
    TRIAL :  cpu time    279.3399: real time    279.5540
    CORREC:  cpu time    282.6287: real time    282.8439
    CHARGE:  cpu time      0.4799: real time      0.4808
    --------------------------------------------
      LOOP:  cpu time    564.5748: real time    565.0256

 eigenvalue-minimisations  :     0
 total energy-change (2. order) :-0.2982649E+00  (-0.8609116E-01)
 number of electron      40.0000002 magnetization       0.0070489      0.0070502      0.0070433
 augmentation part       -9.7996857 magnetization      -0.0023336     -0.0023180     -0.0023070

 Free energy of the ion-electron system (eV)
  ---------------------------------------------------
  alpha Z        PSCENC =        15.50309534
  Ewald energy   TEWEN  =     -1279.86501545
  -Hartree energ DENC   =       -87.07751393
  -exchange      EXHF   =        69.04543487
  -V(xc)+E(xc)   XCENC  =      -450.44152518
  PAW double counting   =     14231.19483036   -13736.18893955
  entropy T*S    EENTRO =        -0.00000000
  eigenvalues    EBANDS =       -68.41881675
  atomic energy  EATOM  =      1267.07504369
  ---------------------------------------------------
  free energy    TOTEN  =       -39.17340661 eV

  energy without entropy =      -39.17340661  energy(sigma->0) =      -39.17340661
  exchange ACFDT corr.  =        -0.00000000  see jH, gK, PRB 81, 115126


--------------------------------------------------------------------------------------------------------




--------------------------------------- Iteration      1(   9)  ---------------------------------------


    POTLOK:  cpu time      0.2043: real time      0.2043
    SETDIJ:  cpu time      1.9262: real time      1.9271
    TRIAL :  cpu time    280.7925: real time    281.0066
    CORREC:  cpu time    282.9508: real time    283.2155
    CHARGE:  cpu time      0.4819: real time      0.4825
    --------------------------------------------
      LOOP:  cpu time    566.3879: real time    566.8683

 eigenvalue-minimisations  :     0
 total energy-change (2. order) :-0.8595421E-01  (-0.1517371E-01)
 number of electron      40.0000002 magnetization       0.0039591      0.0039617      0.0039553
 augmentation part       -9.7936513 magnetization      -0.0011293     -0.0011410     -0.0011373

 Free energy of the ion-electron system (eV)
  ---------------------------------------------------
  alpha Z        PSCENC =        15.50309534
  Ewald energy   TEWEN  =     -1279.86501545
  -Hartree energ DENC   =       -86.88635796
  -exchange      EXHF   =        68.97327303
  -V(xc)+E(xc)   XCENC  =      -450.40643159
  PAW double counting   =     14545.58041821   -14050.63060663
  entropy T*S    EENTRO =        -0.00000000
  eigenvalues    EBANDS =       -68.60277945
  atomic energy  EATOM  =      1267.07504369
  ---------------------------------------------------
  free energy    TOTEN  =       -39.25936082 eV

  energy without entropy =      -39.25936082  energy(sigma->0) =      -39.25936082
  exchange ACFDT corr.  =        -0.00000000  see jH, gK, PRB 81, 115126


--------------------------------------------------------------------------------------------------------




--------------------------------------- Iteration      1(  10)  ---------------------------------------


    POTLOK:  cpu time      0.2044: real time      0.2044
    SETDIJ:  cpu time      1.9130: real time      1.9137
    TRIAL :  cpu time    280.3024: real time    280.5560
    CORREC:  cpu time    283.0099: real time    283.2208
    CHARGE:  cpu time      0.4848: real time      0.4849
    --------------------------------------------
      LOOP:  cpu time    565.9454: real time    566.4109

 eigenvalue-minimisations  :     0
 total energy-change (2. order) :-0.1515954E-01  (-0.3527684E-02)
 number of electron      40.0000002 magnetization       0.0021538      0.0021551      0.0021505
 augmentation part       -9.7908348 magnetization       0.0002289      0.0002186      0.0002239

 Free energy of the ion-electron system (eV)
  ---------------------------------------------------
  alpha Z        PSCENC =        15.50309534
  Ewald energy   TEWEN  =     -1279.86501545
  -Hartree energ DENC   =       -86.97880358
  -exchange      EXHF   =        68.97067812
  -V(xc)+E(xc)   XCENC  =      -450.39947640
  PAW double counting   =     14494.92846180   -13999.99887819
  entropy T*S    EENTRO =        -0.00000000
  eigenvalues    EBANDS =       -68.50962569
  atomic energy  EATOM  =      1267.07504369
  ---------------------------------------------------
  free energy    TOTEN  =       -39.27452036 eV

  energy without entropy =      -39.27452036  energy(sigma->0) =      -39.27452036
  exchange ACFDT corr.  =        -0.00000000  see jH, gK, PRB 81, 115126


--------------------------------------------------------------------------------------------------------




--------------------------------------- Iteration      1(  11)  ---------------------------------------


    POTLOK:  cpu time      0.2049: real time      0.2050
    SETDIJ:  cpu time      1.9082: real time      1.9090
    TRIAL :  cpu time    280.0199: real time    280.2304
    CORREC:  cpu time    282.9230: real time    283.1327
    CHARGE:  cpu time      0.4851: real time      0.4851
    --------------------------------------------
      LOOP:  cpu time    565.5591: real time    565.9935

 eigenvalue-minimisations  :     0
 total energy-change (2. order) :-0.3560524E-02  (-0.7097472E-03)
 number of electron      40.0000002 magnetization       0.0011270      0.0011273      0.0011245
 augmentation part       -9.7896953 magnetization       0.0004577      0.0004532      0.0004568

 Free energy of the ion-electron system (eV)
  ---------------------------------------------------
  alpha Z        PSCENC =        15.50309534
  Ewald energy   TEWEN  =     -1279.86501545
  -Hartree energ DENC   =       -86.94031249
  -exchange      EXHF   =        68.96115256
  -V(xc)+E(xc)   XCENC  =      -450.39908760
  PAW double counting   =     14309.89513651   -13814.96817769
  entropy T*S    EENTRO =        -0.00000000
  eigenvalues    EBANDS =       -68.53991576
  atomic energy  EATOM  =      1267.07504369
  ---------------------------------------------------
  free energy    TOTEN  =       -39.27808089 eV

  energy without entropy =      -39.27808089  energy(sigma->0) =      -39.27808089
  exchange ACFDT corr.  =        -0.00000000  see jH, gK, PRB 81, 115126


--------------------------------------------------------------------------------------------------------




--------------------------------------- Iteration      1(  12)  ---------------------------------------


    POTLOK:  cpu time      0.2037: real time      0.2037
    SETDIJ:  cpu time      1.9178: real time      1.9185
    TRIAL :  cpu time    279.2521: real time    279.4633
    CORREC:  cpu time    282.8920: real time    283.1041
    CHARGE:  cpu time      0.4861: real time      0.4861
    --------------------------------------------
      LOOP:  cpu time    564.7830: real time    565.2087

 eigenvalue-minimisations  :     0
 total energy-change (2. order) :-0.7473723E-03  (-0.1944204E-03)
 number of electron      40.0000002 magnetization       0.0005522      0.0005522      0.0005505
 augmentation part       -9.7900997 magnetization       0.0003322      0.0003300      0.0003323

 Free energy of the ion-electron system (eV)
  ---------------------------------------------------
  alpha Z        PSCENC =        15.50309534
  Ewald energy   TEWEN  =     -1279.86501545
  -Hartree energ DENC   =       -86.91586419
  -exchange      EXHF   =        68.96011964
  -V(xc)+E(xc)   XCENC  =      -450.39796119
  PAW double counting   =     14146.28844888   -13651.35784946
  entropy T*S    EENTRO =        -0.00000000
  eigenvalues    EBANDS =       -68.56884552
  atomic energy  EATOM  =      1267.07504369
  ---------------------------------------------------
  free energy    TOTEN  =       -39.27882826 eV

  energy without entropy =      -39.27882826  energy(sigma->0) =      -39.27882826
  exchange ACFDT corr.  =        -0.00000000  see jH, gK, PRB 81, 115126


--------------------------------------------------------------------------------------------------------




--------------------------------------- Iteration      1(  13)  ---------------------------------------


    POTLOK:  cpu time      0.2032: real time      0.2038
    SETDIJ:  cpu time      1.9164: real time      1.9170
    TRIAL :  cpu time    279.4111: real time    279.6228
    CORREC:  cpu time    282.3043: real time    282.5690
    CHARGE:  cpu time      0.4901: real time      0.4901
    --------------------------------------------
      LOOP:  cpu time    564.3410: real time    564.8346

 eigenvalue-minimisations  :     0
 total energy-change (2. order) :-0.2117280E-03  (-0.6191909E-04)
 number of electron      40.0000002 magnetization       0.0002542      0.0002541      0.0002528
 augmentation part       -9.7901912 magnetization       0.0002194      0.0002187      0.0002200

 Free energy of the ion-electron system (eV)
  ---------------------------------------------------
  alpha Z        PSCENC =        15.50309534
  Ewald energy   TEWEN  =     -1279.86501545
  -Hartree energ DENC   =       -86.94241529
  -exchange      EXHF   =        68.96505626
  -V(xc)+E(xc)   XCENC  =      -450.39646612
  PAW double counting   =     14056.40942698   -13561.47692728
  entropy T*S    EENTRO =        -0.00000000
  eigenvalues    EBANDS =       -68.55083811
  atomic energy  EATOM  =      1267.07504369
  ---------------------------------------------------
  free energy    TOTEN  =       -39.27903999 eV

  energy without entropy =      -39.27903999  energy(sigma->0) =      -39.27903999
  exchange ACFDT corr.  =        -0.00000000  see jH, gK, PRB 81, 115126


--------------------------------------------------------------------------------------------------------




--------------------------------------- Iteration      1(  14)  ---------------------------------------


    POTLOK:  cpu time      0.2033: real time      0.2041
    SETDIJ:  cpu time      1.9305: real time      1.9308
    TRIAL :  cpu time    280.5839: real time    280.7963
    CORREC:  cpu time    282.3058: real time    282.5228
    CHARGE:  cpu time      0.4829: real time      0.4829
    --------------------------------------------
      LOOP:  cpu time    565.5081: real time    566.1696

 eigenvalue-minimisations  :     0
 total energy-change (2. order) :-0.6888458E-04  (-0.2327529E-04)
 number of electron      40.0000002 magnetization       0.0001037      0.0001037      0.0001025
 augmentation part       -9.7899460 magnetization       0.0001890      0.0001888      0.0001897

 Free energy of the ion-electron system (eV)
  ---------------------------------------------------
  alpha Z        PSCENC =        15.50309534
  Ewald energy   TEWEN  =     -1279.86501545
  -Hartree energ DENC   =       -86.95428539
  -exchange      EXHF   =        68.96721148
  -V(xc)+E(xc)   XCENC  =      -450.39590386
  PAW double counting   =     14013.72558784   -13518.79258890
  entropy T*S    EENTRO =        -0.00000000
  eigenvalues    EBANDS =       -68.54225361
  atomic energy  EATOM  =      1267.07504369
  ---------------------------------------------------
  free energy    TOTEN  =       -39.27910887 eV

  energy without entropy =      -39.27910887  energy(sigma->0) =      -39.27910887
  exchange ACFDT corr.  =        -0.00000000  see jH, gK, PRB 81, 115126


--------------------------------------------------------------------------------------------------------




--------------------------------------- Iteration      1(  15)  ---------------------------------------


    POTLOK:  cpu time      0.2029: real time      0.2038
    SETDIJ:  cpu time      1.9437: real time      1.9440
    TRIAL :  cpu time    280.2605: real time    280.4712
    CORREC:  cpu time    282.2169: real time    282.4266
    CHARGE:  cpu time      0.4851: real time      0.4856
    --------------------------------------------
      LOOP:  cpu time    565.1217: real time    565.5642

 eigenvalue-minimisations  :     0
 total energy-change (2. order) :-0.2584097E-04  (-0.1068555E-04)
 number of electron      40.0000002 magnetization       0.0000229      0.0000230      0.0000222
 augmentation part       -9.7896677 magnetization       0.0001710      0.0001709      0.0001711

 Free energy of the ion-electron system (eV)
  ---------------------------------------------------
  alpha Z        PSCENC =        15.50309534
  Ewald energy   TEWEN  =     -1279.86501545
  -Hartree energ DENC   =       -86.95743096
  -exchange      EXHF   =        68.96769930
  -V(xc)+E(xc)   XCENC  =      -450.39558585
  PAW double counting   =     13995.43628341   -13500.50345832
  entropy T*S    EENTRO =        -0.00000000
  eigenvalues    EBANDS =       -68.53976587
  atomic energy  EATOM  =      1267.07504369
  ---------------------------------------------------
  free energy    TOTEN  =       -39.27913471 eV

  energy without entropy =      -39.27913471  energy(sigma->0) =      -39.27913471
  exchange ACFDT corr.  =        -0.00000000  see jH, gK, PRB 81, 115126


--------------------------------------------------------------------------------------------------------




--------------------------------------- Iteration      1(  16)  ---------------------------------------


    POTLOK:  cpu time      0.2035: real time      0.2035
    SETDIJ:  cpu time      1.9439: real time      1.9448
    TRIAL :  cpu time    280.1848: real time    280.3950
    CORREC:  cpu time    281.5611: real time    281.7738
    CHARGE:  cpu time      0.4814: real time      0.4818
    --------------------------------------------
      LOOP:  cpu time    564.4070: real time    564.8315

 eigenvalue-minimisations  :     0
 total energy-change (2. order) :-0.1168239E-04  (-0.4608337E-05)
 number of electron      40.0000002 magnetization      -0.0000100     -0.0000099     -0.0000103
 augmentation part       -9.7895507 magnetization       0.0001184      0.0001187      0.0001185

 Free energy of the ion-electron system (eV)
  ---------------------------------------------------
  alpha Z        PSCENC =        15.50309534
  Ewald energy   TEWEN  =     -1279.86501545
  -Hartree energ DENC   =       -86.95907984
  -exchange      EXHF   =        68.96783679
  -V(xc)+E(xc)   XCENC  =      -450.39527650
  PAW double counting   =     13988.67156871   -13493.73907217
  entropy T*S    EENTRO =        -0.00000000
  eigenvalues    EBANDS =       -68.53824696
  atomic energy  EATOM  =      1267.07504369
  ---------------------------------------------------
  free energy    TOTEN  =       -39.27914640 eV

  energy without entropy =      -39.27914640  energy(sigma->0) =      -39.27914640
  exchange ACFDT corr.  =        -0.00000000  see jH, gK, PRB 81, 115126


--------------------------------------------------------------------------------------------------------




--------------------------------------- Iteration      1(  17)  ---------------------------------------


    POTLOK:  cpu time      0.2041: real time      0.2041
    SETDIJ:  cpu time      1.9420: real time      1.9427
    TRIAL :  cpu time    279.7391: real time    279.9501
    CORREC:  cpu time    281.9637: real time    282.1729
    EDDIAG:  cpu time    279.7177: real time    279.9198
    CHARGE:  cpu time      0.4864: real time      0.4864
    --------------------------------------------
      LOOP:  cpu time    844.0840: real time    844.7072

 eigenvalue-minimisations  :     0
 total energy-change (2. order) :-0.4723870E-05  (-0.1761385E-05)
 number of electron      40.0000002 magnetization      -0.0000184     -0.0000184     -0.0000185
 augmentation part       -9.7895490 magnetization       0.0000541      0.0000541      0.0000540

 Free energy of the ion-electron system (eV)
  ---------------------------------------------------
  alpha Z        PSCENC =        15.50309534
  Ewald energy   TEWEN  =     -1279.86501545
  -Hartree energ DENC   =       -86.95773671
  -exchange      EXHF   =        68.96753687
  -V(xc)+E(xc)   XCENC  =      -450.39522394
  PAW double counting   =     13987.34695607   -13492.41454972
  entropy T*S    EENTRO =        -0.00000000
  eigenvalues    EBANDS =       -68.53938533
  atomic energy  EATOM  =      1267.07504369
  ---------------------------------------------------
  free energy    TOTEN  =       -39.27915112 eV

  energy without entropy =      -39.27915112  energy(sigma->0) =      -39.27915112
[...]
  721        redis_pw                              0.129823                          160   3
  722          m_alltoall_d                          0.123600                        192   4
  723        orth1                                 0.023110                           64   3
  724        m_sumb_d                              0.010640                           64   3
  725        shift_bands_between_low_high          0.000912                           32   3
  726        pdssyex_zheevx                        0.216454                           32   3
  727        lincom                                0.027124                           32   3
  728        m_bcast_z                             0.001038                            4   3
  729        m_bcast_d                             0.000674                            4   3
  730      set_charge                            1.039612                              2   2
  731        soft_charge                           0.924413                            2   3
  732          fftwav_mpi                            0.300009                        128   4
  733            fft3d_mpi                             0.213831                      128   5
  734              fftbas_mpi                            0.213768                    128   6
  735                fftbas_plan_mpi                       0.213682                  128   7
  736                  dfftw_execute                         0.113408                384   8
  737                  map_forward                           0.098146                256   8
  738                    map_gather                            0.019099              128   9
  739                    m_alltoallv_z                         0.053559              128   9
  740                    map_scatter                           0.012032              128   9
  741          pw_charge                             0.489781                         64   4
  742          m_sumb_d                              0.106289                         16   4
  743          fft_gq                                0.019567                          2   4
  744            fft3d_mpi                             0.018087                        8   5
  745              fftbas_mpi                            0.018080                      8   6
  746                fftbas_plan_mpi                       0.018078                    8   7
  747                  dfftw_execute                         0.002829                 24   8
  748                  map_backward                          0.015166                 16   8
  749                    map_gather                            0.004467               16   9
  750                    m_alltoallv_z                         0.010551               16   9
  751                    map_scatter                           0.000118               16   9
  752        depsum                                0.021750                            2   3
  753          m_sumb_d                              0.021106                          4   4
  754        augmentation_charge                   0.087356                            2   3
  755          m_sumb_d                              0.000146                          2   4
  756          fft3d_mpi                             0.020580                          8   4
  757            fftbas_mpi                            0.020575                        8   5
  758              fftbas_plan_mpi                       0.020571                      8   6
  759                dfftw_execute                         0.004098                   24   7
  760                map_backward                          0.016237                   16   7
  761                  map_gather                            0.000918                  8   8
  762                  m_alltoallv_z                         0.013590                  8   8
  763                  map_scatter                           0.001686                  8   8
 
 Flat profile
 ============
 
             routine name                   CPU           calls
 ---------------------------------------------------------------
 rpromu_hf                            3497.113293      180224
 racc0mu_hf                           2975.005576      124928
 fock_charge_mu                       2728.908068      124928
 dfftw_execute                        2558.682955    47908809
 vhamil_trace                         1631.431100     7602176
 m_alltoallv_z                        1410.273009    15970063
 map_scatter                           691.022888    15970063
 map_gather                            612.043811    15970063
 apply_gfac_exchange                   294.781309     7602176
 m_sumb_d                              291.615514    17949683
 calc_dllmm_trans                      242.385270    12025856
 fftbas_plan_mpi                       130.854882    15969603
 m_ireduce_z_to                         79.785566      118784
 total_time                             76.589614           1
 fock_set_gfac_vkpt                     68.926126       59392
 fock_fwd                               67.190530         928
 m_ibcast_z_from                        50.324423      139904
 apply_gfac_der                         46.046119      245760
 phaser_hf                              43.195745       62464
 fftwav_mpi                             37.123703      263726
 overl_fock                             32.640669     7602176
 fock_force                             29.087005           3
 eccp_nl_fock                           25.733436    17694720
 eccp                                   21.892308        3488
 vhamil                                 18.420282        1559
 w1_copy                                17.809274      128613
 map_forward                            17.385884    16226546
 map_backward                           14.705880    15712660
 edwav                                  13.724816          52
 spher                                  13.249045         684
 pw_charge                              12.557061        1760
 m_alltoall_d                            8.082741       34145
 fft3d_mpi                               8.020773    15969603
 apply_gfac_weight                       7.828726      245760
 fftbas_mpi                              7.571353    15969603
 potlok                                  7.305162          60
 pdssyex_zheevx                          6.317130         992
 gemm                                    4.809619       52080
 phase                                   4.420498        2099
 lapack                                  3.984861         567
 fock_set_gfac_der                       3.712676        3072
 proj1                                   3.392878        2775
 fock_set_fsg_der                        2.557243           3
 lincom                                  1.998898        2720
 fock_set_fsg                            1.973245           3
 setdij_                                 1.960652         138
 m_bcast_z                               1.954737        5079
 augmentation_charge                     1.819777          55
 orth1                                   1.787370        4485
 set_rsgf_all                            1.762853          62
 sphpro_fast                             1.558052           4
 elmin_all                               1.439281           3
 fornl                                   1.395532           3
 projxyz                                 1.342611          48
 work_mul_crexp                          1.212101       52080
 eddiag                                  1.184215          31
 eddav                                   1.141539           5
 crexp_mul_wave                          0.978876       44400
 w1_dscal                                0.823854         832
 force_and_stress                        0.635743           3
 fock_all_dblbuf                         0.422731          58
 ggemm                                   0.413580         727
 fftext_mpi                              0.388345        6830
 soft_charge                             0.317358          55
 redis_pw                                0.285700        7845
 fock_bck                                0.272866         928
 choleski                                0.155550         896
 rspher_all                              0.141752          30
 kinhamil                                0.125377        1559
 fock_ace_acc_apply                      0.117069          96
 set_charge                              0.095506          55
 fft_and_gather                          0.088313         976
 w1_dot                                  0.081755         864
 m_bcast_d                               0.073458        1163
 vnlac0                                  0.066467        3255
 hamiltmu                                0.062361         567
 overl1                                  0.061286        2423
 wrk_allocate                            0.060790           3
 reduce                                  0.059775         928
 overl                                   0.054304        3598
 apply_precond                           0.043180         407
 fft_gq                                  0.042683          55
 densta                                  0.041488          66
 brgrid                                  0.030486           1
 pothar                                  0.030110          60
 contraction                             0.025634       55296
 redis_proj                              0.021666       14140
 depsum                                  0.018588          55
 strkin                                  0.015581           3
 set_dd_paw                              0.014582          62
 strenl                                  0.013164           3
 strehar                                 0.010894           3
 setup_precond                           0.010397         160
 forloc                                  0.010113           3
 orthch                                  0.009890          55
 forhar                                  0.009485           3
 wavpre_noio                             0.008820           2
 strelo                                  0.008801           3
 w1_daxpy                                0.006570          96
 fordep                                  0.006288           3
 stufak                                  0.005412           3
 waitgth                                 0.004672         928
 hamilt_local                            0.004420         992
 newband                                 0.004143         647
 waitred                                 0.002656         928
 rsp                                     0.001296           3
 w1_projall                              0.001281         407
 projlat_der                             0.001269          48
 redis_pw_all                            0.001014          52
 shift_bands_between_low_high            0.000954          80
 fewald                                  0.000567           3
 potlok_metagga                          0.000547          59
 fock_ace_construct                      0.000366           1
 truncate_high_frequency_w1              0.000246         727
 set_dd_magatom                          0.000132           6
 wrk_deallocate                          0.000120           3
 proj                                    0.000114          48
 rcp                                     0.000107           3
 redis_pw_over_bands                     0.000075          57
 proall                                  0.000073           3
 crpa_reader                             0.000043           1
 rotate_active_occupied_orbital          0.000007           3
 FERMAT_RAZOR                            0.000002           1
 vectorpot                               0.000000           1
 ---------------------------------------------------------------
  summed up times    17847.230434656143     
 
 Accumulative profile
 ====================
 
             routine name                   CPU           calls
 ---------------------------------------------------------------
 total_time                          17846.933894           1
 fock_all_dblbuf                     16328.053881          58
 fock_fwd                            16143.761478         928
 elmin_all                           16012.595090           3
 eddiag                               8755.503423          31
 edwav                                7381.661844          52
 fock_charge_mu                       5739.845843      124928
 fft3d_mpi                            5450.264895    15969603
 fftbas_mpi                           5442.244122    15969603
 fftbas_plan_mpi                      5434.672769    15969603
 rpromu_hf                            3562.940368      180224
 racc0mu_hf                           3010.937775      124928
 dfftw_execute                        2558.682955    47908809
 vhamil_trace                         1631.431100     7602176
 map_backward                         1447.525813    15712660
 m_alltoallv_z                        1410.273009    15970063
 map_forward                          1297.905660    16226546
 force_and_stress                     1165.202272           3
 fock_force                           1143.202398           3
 map_scatter                           691.022888    15970063
 map_gather                            612.043811    15970063
 apply_gfac_exchange                   294.781309     7602176
 m_sumb_d                              291.615514    17949683
 calc_dllmm_trans                      242.385270    12025856
 fftwav_mpi                            145.489406      263726
 set_dd_paw                            116.672475          62
 fock_set_gfac_vkpt                    109.995516       59392
 reduce                                 79.845341         928
 m_ireduce_z_to                         79.785566      118784
 fft_and_gather                         52.253282         976
 m_ibcast_z_from                        50.324423      139904
 apply_gfac_der                         46.046119      245760
 phaser_hf                              43.195745       62464
 overl_fock                             32.640669     7602176
 set_charge                             26.864822          55
 eccp_nl_fock                           25.733436    17694720
 soft_charge                            24.206843          55
 eddav                                  24.122610           5
 eccp                                   22.164821        3488
 vhamil                                 18.420282        1559
 w1_copy                                17.809274      128613
 hamilt_local                           15.228510         992
 spher                                  13.249045         684
 strenl                                 12.799074           3
 pw_charge                              12.557061        1760
 potlok                                 12.158047          60
 hamiltmu                                9.580826         567
 m_alltoall_d                            8.082741       34145
 apply_gfac_weight                       7.828726      245760
 redis_pw                                6.615871        7845
 fftext_mpi                              6.482200        6830
 pdssyex_zheevx                          6.317132         992
 vnlac0                                  6.238731        3255
 fock_set_gfac_der                       5.839031        3072
 kinhamil                                5.129166        1559
 gemm                                    4.809619       52080
 fock_bck                                4.806449         928
 proj1                                   4.467030        2775
 phase                                   4.420498        2099
 lapack                                  3.984861         567
 wrk_allocate                            2.751816           3
 fock_set_fsg_der                        2.557349           3
 projlat_der                             2.428686          48
 augmentation_charge                     2.412513          55
 setdij_                                 2.047915         138
 newband                                 2.012711         647
 lincom                                  1.998898        2720
 fock_set_fsg                            1.991051           3
 m_bcast_z                               1.954737        5079
 orth1                                   1.787370        4485
 redis_proj                              1.774237       14140
 set_rsgf_all                            1.762853          62
 sphpro_fast                             1.663292           4
 orthch                                  1.645356          55
 fornl                                   1.574783           3
 projxyz                                 1.361676          48
 work_mul_crexp                          1.212101       52080
 w1_projall                              1.051644         407
 crexp_mul_wave                          0.978876       44400
 redis_pw_over_bands                     0.932729          57
 redis_pw_all                            0.932654          52
 w1_dscal                                0.823854         832
 ggemm                                   0.413580         727
 fft_gq                                  0.409609          55
 densta                                  0.323407          66
 fock_ace_acc_apply                      0.248645          96
 fordep                                  0.246721           3
 proall                                  0.212769           3
 choleski                                0.155550         896
 depsum                                  0.149959          55
 rspher_all                              0.141752          30
 proj                                    0.106651          48
 w1_dot                                  0.089661         864
 m_bcast_d                               0.073458        1163
 fock_ace_construct                      0.065887           1
 overl1                                  0.061286        2423
 overl                                   0.054304        3598
 pothar                                  0.043704          60
 apply_precond                           0.043180         407
 fewald                                  0.033188           3
 brgrid                                  0.030486           1
 contraction                             0.025634       55296
 strkin                                  0.017956           3
 strehar                                 0.012591           3
 wavpre_noio                             0.012242           2
 setup_precond                           0.011819         160
 forhar                                  0.010613           3
 forloc                                  0.010218           3
 strelo                                  0.010194           3
 w1_daxpy                                0.006570          96
 stufak                                  0.005412           3
 waitgth                                 0.004672         928
 waitred                                 0.002656         928
 rsp                                     0.001296           3
 shift_bands_between_low_high            0.000954          80
 potlok_metagga                          0.000547          59
 truncate_high_frequency_w1              0.000246         727
 set_dd_magatom                          0.000132           6
 wrk_deallocate                          0.000120           3
 rcp                                     0.000107           3
 crpa_reader                             0.000043           1
 rotate_active_occupied_orbital          0.000007           3
 FERMAT_RAZOR                            0.000002           1
 vectorpot                               0.000000           1
 ---------------------------------------------------------------
 
Profiling took  42.526596 32.430610  0.004550  0.004366 seconds
Profiling took  32.615131 seconds
