 vasp.6.3.2 27Jun22 (build Mar 16 2023 13:30:57) complex                         
 executed on        HPECrayEX_GCC date 2024.08.05  15:51:48
 running  256 mpi-ranks, with    1 threads/rank
 distrk:  each k-point on   64 cores,    4 groups
 distr:  one band on NCORE=   2 cores,   32 groups


--------------------------------------------------------------------------------------------------------


 INCAR:
   AEXX = 0.35
   ALGO = All
   EDIFF = 1e-05
   EDIFFG = -0.01
   ENCUT = 770
   HFSCREEN = 0.208
   IBRION = 2
   ICORELEVEL = 0
   ISIF = 3
   ISMEAR = 0
   ISPIN = 0
   ISYM = -1
   KPAR = 4
   LASPH = True
   LHFCALC = True
   LORBIT = 11
   LREAL = False
   LSUBROT = False
   LVHAR = True
   LWAVE = True
   NCORE = 2
   NEDOS = 2000
   NELM = 200
   LSORBIT = TRUE
   NSW = 0
   POTIM = 0.2
   PREC = Accurate
   PRECFOCK = Fast
   SIGMA = 0.05

 POTCAR:    PAW_PBE Te 08Apr2002                  
 POTCAR:    PAW_PBE Pb 08Apr2002                  
 -----------------------------------------------------------------------------
|                                                                             |
|           W    W    AA    RRRRR   N    N  II  N    N   GGGG   !!!           |
|           W    W   A  A   R    R  NN   N  II  NN   N  G    G  !!!           |
|           W    W  A    A  R    R  N N  N  II  N N  N  G       !!!           |
|           W WW W  AAAAAA  RRRRR   N  N N  II  N  N N  G  GGG   !            |
|           WW  WW  A    A  R   R   N   NN  II  N   NN  G    G                |
|           W    W  A    A  R    R  N    N  II  N    N   GGGG   !!!           |
|                                                                             |
|     You use a magnetic or noncollinear calculation, but did not specify     |
|     the initial magnetic moment with the MAGMOM tag. Note that a            |
|     default of 1 will be used for all atoms. This ferromagnetic setup       |
|     may break the symmetry of the crystal, in particular it may rule        |
|     out finding an antiferromagnetic solution. Thence, we recommend         |
|     setting the initial magnetic moment manually or verifying carefully     |
|     that this magnetic setup is desired.                                    |
|                                                                             |
 -----------------------------------------------------------------------------

 POTCAR:    PAW_PBE Te 08Apr2002                  
   VRHFIN =Te: s2p4                                                                                 
   LEXCH  = PE                                                                                      
   EATOM  =   223.2721 eV,   16.4100 Ry                                                             
                                                                                                    
   TITEL  = PAW_PBE Te 08Apr2002                                                                    
   LULTRA =        F    use ultrasoft PP ?                                                          
   IUNSCR =        1    unscreen: 0-lin 1-nonlin 2-no                                               
   RPACOR =    2.200    partial core radius                                                         
   POMASS =  127.600; ZVAL   =    6.000    mass and valenz                                          
   RCORE  =    2.300    outmost cutoff radius                                                       
   RWIGS  =    2.900; RWIGS  =    1.535    wigner-seitz radius (au A)                               
   ENMAX  =  174.982; ENMIN  =  131.236 eV                                                          
   ICORE  =        3    local potential                                                             
   LCOR   =        T    correct aug charges                                                         
   LPAW   =        T    paw PP                                                                      
   EAUG   =  368.792                                                                                
   DEXC   =    0.000                                                                                
   RMAX   =    2.345    core radius for proj-oper                                                   
   RAUG   =    1.300    factor for augmentation sphere                                              
   RDEP   =    2.397    radius for radial grids                                                     
   RDEPT  =    2.174    core radius for aug-charge                                                  
                                                                                                    
   Atomic configuration                                                                             
   13 entries                                                                                       
     n  l   j            E        occ.                                                              
     1  0  0.50    -31621.2075   2.0000                                                             
     2  0  0.50     -4848.7941   2.0000                                                             
     2  1  1.50     -4352.1960   6.0000                                                             
     3  0  0.50      -964.9612   2.0000                                                             
     3  1  1.50      -803.6179   6.0000                                                             
     3  2  2.50      -559.8710  10.0000                                                             
     4  0  0.50      -164.3522   2.0000                                                             
     4  1  1.50      -114.3756   6.0000                                                             
     4  2  2.50       -41.6483  10.0000                                                             
     5  0  0.50       -15.1072   2.0000                                                             
     5  1  0.50        -5.9526   4.0000                                                             
     5  2  1.50        -5.4423   0.0000                                                             
     4  3  2.50        -5.4423   0.0000                                                             
   Description                                                                                      
     l       E           TYP  RCUT    TYP  RCUT                                                     
     0    -15.1072389     23  2.300                                                                 
     0    -16.4678215     23  2.300                                                                 
     1     -5.9526306     23  2.300                                                                 
     1     -2.4873968     23  2.300                                                                 
     2     -5.4423304     23  2.300                                                                 
     3     -1.3605826     23  2.300                                                                 
  local pseudopotential read in
  partial core-charges read in
  partial kinetic energy density read in
  atomic valenz-charges read in
  non local Contribution for L=           0  read in
    real space projection operators read in
  non local Contribution for L=           0  read in
    real space projection operators read in
  non local Contribution for L=           1  read in
    real space projection operators read in
  non local Contribution for L=           1  read in
    real space projection operators read in
  non local Contribution for L=           2  read in
    real space projection operators read in
    PAW grid and wavefunctions read in

   number of l-projection  operators is LMAX  =           5
   number of lm-projection operators is LMMAX =          13

 POTCAR:    PAW_PBE Pb 08Apr2002                  
   VRHFIN =Pb:                                                                                      
   LEXCH  = PE                                                                                      
   EATOM  =    96.9868 eV,    7.1283 Ry                                                             
                                                                                                    
   TITEL  = PAW_PBE Pb 08Apr2002                                                                    
   LULTRA =        F    use ultrasoft PP ?                                                          
   IUNSCR =        1    unscreen: 0-lin 1-nonlin 2-no                                               
   RPACOR =    2.200    partial core radius                                                         
   POMASS =  207.200; ZVAL   =    4.000    mass and valenz                                          
   RCORE  =    3.100    outmost cutoff radius                                                       
   RWIGS  =    3.260; RWIGS  =    1.725    wigner-seitz radius (au A)                               
   ENMAX  =   97.973; ENMIN  =   73.480 eV                                                          
   ICORE  =        3    local potential                                                             
   LCOR   =        T    correct aug charges                                                         
   LPAW   =        T    paw PP                                                                      
   EAUG   =  234.873                                                                                
   DEXC   =    0.000                                                                                
   RMAX   =    3.158    core radius for proj-oper                                                   
   RAUG   =    1.300    factor for augmentation sphere                                              
   RDEP   =    3.202    radius for radial grids                                                     
   RDEPT  =    2.659    core radius for aug-charge                                                  
                                                                                                    
   Atomic configuration                                                                             
   17 entries                                                                                       
     n  l   j            E        occ.                                                              
     1  0  0.50    -88091.8466   2.0000                                                             
     2  0  0.50    -15753.4197   2.0000                                                             
     2  1  1.50    -13508.1797   6.0000                                                             
     3  0  0.50     -3781.7194   2.0000                                                             
     3  1  1.50     -3138.2529   6.0000                                                             
     3  2  2.50     -2483.2977  10.0000                                                             
     4  0  0.50      -856.2895   2.0000                                                             
     4  1  1.50      -645.4943   6.0000                                                             
     4  2  2.50      -401.8768  10.0000                                                             
     4  3  3.50      -132.9059  14.0000                                                             
     5  0  0.50      -144.0950   2.0000                                                             
     5  1  1.50       -85.7879   6.0000                                                             
     5  2  2.50       -21.1769  10.0000                                                             
     6  0  0.50       -12.0372   2.0000                                                             
     6  1  1.50        -3.4971   2.0000                                                             
     6  2  2.50        -1.3606   0.0000                                                             
     5  3  2.50        -2.7212   0.0000                                                             
   Description                                                                                      
     l       E           TYP  RCUT    TYP  RCUT                                                     
     0    -12.0371566     23  3.100                                                                 
     0    -13.3977392     23  3.100                                                                 
     1     -3.4971341     23  3.100                                                                 
     1     -5.4423304     23  3.100                                                                 
     2     -1.3605826     23  3.100                                                                 
     3     -1.3605826     23  3.100                                                                 
  local pseudopotential read in
  partial core-charges read in
  partial kinetic energy density read in
  atomic valenz-charges read in
  non local Contribution for L=           0  read in
    real space projection operators read in
  non local Contribution for L=           0  read in
    real space projection operators read in
  non local Contribution for L=           1  read in
    real space projection operators read in
  non local Contribution for L=           1  read in
    real space projection operators read in
  non local Contribution for L=           2  read in
    real space projection operators read in
    PAW grid and wavefunctions read in

   number of l-projection  operators is LMAX  =           5
   number of lm-projection operators is LMMAX =          13

 WARNING: PSMAXN for non-local potential too small
          PSMAXN should be >   14.216141646966818       NTYP=           2
  PAW_PBE Te 08Apr2002                  :
 energy of atom  1       EATOM= -223.2721
 kinetic energy error for atom=    0.0002 (will be added to EATOM!!)
  PAW_PBE Pb 08Apr2002                  :
 energy of atom  2       EATOM=  -96.9868
 kinetic energy error for atom=    0.0000 (will be added to EATOM!!)


 POSCAR: Te4 Pb4
  positions in direct lattice
  velocities in cartesian coordinates
 exchange correlation table for  LEXCH =        8
   RHO(1)=    0.500       N(1)  =     2000
   RHO(2)=  100.500       N(2)  =     4000



--------------------------------------------------------------------------------------------------------


 ion  position               nearest neighbor table
   1  0.000  1.000  0.000-   7 3.24   6 3.24   5 3.24   5 3.24   6 3.24   7 3.24
   2  0.000  0.500  0.500-   8 3.24   5 3.24   6 3.24   6 3.24   5 3.24   8 3.24
   3  0.500  1.000  0.500-   5 3.24   8 3.24   7 3.24   7 3.24   8 3.24   5 3.24
   4  0.500  0.500  1.000-   6 3.24   7 3.24   8 3.24   8 3.24   7 3.24   6 3.24
   5  0.000  1.000  0.500-   3 3.24   2 3.24   1 3.24   1 3.24   2 3.24   3 3.24
   6  0.000  0.500  0.000-   4 3.24   2 3.24   1 3.24   2 3.24   1 3.24   4 3.24
   7  0.500  1.000  0.000-   1 3.24   4 3.24   3 3.24   3 3.24   4 3.24   1 3.24
   8  0.500  0.500  0.500-   2 3.24   3 3.24   4 3.24   4 3.24   3 3.24   2 3.24


IMPORTANT INFORMATION: All symmetrisations will be switched off!
NOSYMM: (Re-)initialisation of all symmetry stuff for point group C_1.


----------------------------------------------------------------------------------------

                                     Primitive cell                                     

  volume of cell :     271.8672

  direct lattice vectors                    reciprocal lattice vectors
     6.478168530 -0.000000438 -0.000000332     0.154364616  0.000000011  0.000000008
    -0.000000458  6.478168861 -0.000000258     0.000000010  0.154364608  0.000000006
    -0.000000345 -0.000000251  6.478168768     0.000000008  0.000000006  0.154364611

  length of vectors
     6.478168530  6.478168861  6.478168768     0.154364616  0.154364608  0.154364611

  position of ions in fractional coordinates (direct lattice)
     0.000000108  0.999999960  0.000000036
     0.000000085  0.500000054  0.499999961
     0.499999912  0.999999938  0.499999985
     0.499999898  0.500000050  0.999999991
     0.000000044  0.999999967  0.499999989
     0.000000065  0.500000019  0.000000016
     0.499999942  0.999999970  0.000000025
     0.499999946  0.500000044  0.499999998

  ion indices of the primitive-cell ions
   primitive index   ion index
                 1           1
                 2           2
                 3           3
                 4           4
                 5           5
                 6           6
                 7           7
                 8           8

----------------------------------------------------------------------------------------



 KPOINTS: Automatic mesh                          

Automatic generation of k-mesh.
 Grid dimensions read from file:
 generate k-points for:    4    4    4

 Generating k-lattice:

  Cartesian coordinates                     Fractional coordinates (reciprocal lattice)
     0.038591154  0.000000003  0.000000002     0.250000000  0.000000000  0.000000000
     0.000000003  0.038591152  0.000000001     0.000000000  0.250000000  0.000000000
     0.000000002  0.000000002  0.038591153     0.000000000  0.000000000  0.250000000

  Length of vectors
     0.038591154  0.038591152  0.038591153

  Shift w.r.t. Gamma in fractional coordinates (k-lattice)
     0.000000000  0.000000000  0.000000000

 
 Subroutine IBZKPT returns following result:
 ===========================================
 
 Found     64 irreducible k-points:
 
 Following reciprocal coordinates:
            Coordinates               Weight
  0.000000  0.000000  0.000000      1.000000
  0.250000  0.000000  0.000000      1.000000
  0.500000  0.000000  0.000000      1.000000
 -0.250000  0.000000  0.000000      1.000000
  0.000000  0.250000  0.000000      1.000000
  0.250000  0.250000  0.000000      1.000000
  0.500000  0.250000  0.000000      1.000000
 -0.250000  0.250000  0.000000      1.000000
  0.000000  0.500000  0.000000      1.000000
  0.250000  0.500000  0.000000      1.000000
  0.500000  0.500000  0.000000      1.000000
 -0.250000  0.500000  0.000000      1.000000
  0.000000 -0.250000  0.000000      1.000000
  0.250000 -0.250000  0.000000      1.000000
  0.500000 -0.250000  0.000000      1.000000
 -0.250000 -0.250000  0.000000      1.000000
  0.000000  0.000000  0.250000      1.000000
  0.250000  0.000000  0.250000      1.000000
  0.500000  0.000000  0.250000      1.000000
 -0.250000  0.000000  0.250000      1.000000
  0.000000  0.250000  0.250000      1.000000
  0.250000  0.250000  0.250000      1.000000
  0.500000  0.250000  0.250000      1.000000
 -0.250000  0.250000  0.250000      1.000000
  0.000000  0.500000  0.250000      1.000000
  0.250000  0.500000  0.250000      1.000000
  0.500000  0.500000  0.250000      1.000000
 -0.250000  0.500000  0.250000      1.000000
  0.000000 -0.250000  0.250000      1.000000
  0.250000 -0.250000  0.250000      1.000000
  0.500000 -0.250000  0.250000      1.000000
 -0.250000 -0.250000  0.250000      1.000000
  0.000000  0.000000  0.500000      1.000000
  0.250000  0.000000  0.500000      1.000000
  0.500000  0.000000  0.500000      1.000000
 -0.250000  0.000000  0.500000      1.000000
  0.000000  0.250000  0.500000      1.000000
  0.250000  0.250000  0.500000      1.000000
  0.500000  0.250000  0.500000      1.000000
 -0.250000  0.250000  0.500000      1.000000
  0.000000  0.500000  0.500000      1.000000
  0.250000  0.500000  0.500000      1.000000
  0.500000  0.500000  0.500000      1.000000
 -0.250000  0.500000  0.500000      1.000000
  0.000000 -0.250000  0.500000      1.000000
  0.250000 -0.250000  0.500000      1.000000
  0.500000 -0.250000  0.500000      1.000000
 -0.250000 -0.250000  0.500000      1.000000
  0.000000  0.000000 -0.250000      1.000000
  0.250000  0.000000 -0.250000      1.000000
  0.500000  0.000000 -0.250000      1.000000
 -0.250000  0.000000 -0.250000      1.000000
  0.000000  0.250000 -0.250000      1.000000
  0.250000  0.250000 -0.250000      1.000000
  0.500000  0.250000 -0.250000      1.000000
 -0.250000  0.250000 -0.250000      1.000000
  0.000000  0.500000 -0.250000      1.000000
  0.250000  0.500000 -0.250000      1.000000
  0.500000  0.500000 -0.250000      1.000000
 -0.250000  0.500000 -0.250000      1.000000
  0.000000 -0.250000 -0.250000      1.000000
  0.250000 -0.250000 -0.250000      1.000000
  0.500000 -0.250000 -0.250000      1.000000
 -0.250000 -0.250000 -0.250000      1.000000
 
 Following cartesian coordinates:
            Coordinates               Weight
  0.000000  0.000000  0.000000      1.000000
  0.038591  0.000000  0.000000      1.000000
  0.077182  0.000000  0.000000      1.000000
 -0.038591 -0.000000 -0.000000      1.000000
  0.000000  0.038591  0.000000      1.000000
  0.038591  0.038591  0.000000      1.000000
  0.077182  0.038591  0.000000      1.000000
 -0.038591  0.038591 -0.000000      1.000000
  0.000000  0.077182  0.000000      1.000000
  0.038591  0.077182  0.000000      1.000000
  0.077182  0.077182  0.000000      1.000000
 -0.038591  0.077182  0.000000      1.000000
 -0.000000 -0.038591 -0.000000      1.000000
  0.038591 -0.038591  0.000000      1.000000
  0.077182 -0.038591  0.000000      1.000000
 -0.038591 -0.038591 -0.000000      1.000000
  0.000000  0.000000  0.038591      1.000000
  0.038591  0.000000  0.038591      1.000000
  0.077182  0.000000  0.038591      1.000000
 -0.038591 -0.000000  0.038591      1.000000
  0.000000  0.038591  0.038591      1.000000
  0.038591  0.038591  0.038591      1.000000
  0.077182  0.038591  0.038591      1.000000
 -0.038591  0.038591  0.038591      1.000000
  0.000000  0.077182  0.038591      1.000000
  0.038591  0.077182  0.038591      1.000000
  0.077182  0.077182  0.038591      1.000000
 -0.038591  0.077182  0.038591      1.000000
 -0.000000 -0.038591  0.038591      1.000000
  0.038591 -0.038591  0.038591      1.000000
  0.077182 -0.038591  0.038591      1.000000
 -0.038591 -0.038591  0.038591      1.000000
  0.000000  0.000000  0.077182      1.000000
  0.038591  0.000000  0.077182      1.000000
  0.077182  0.000000  0.077182      1.000000
 -0.038591  0.000000  0.077182      1.000000
  0.000000  0.038591  0.077182      1.000000
  0.038591  0.038591  0.077182      1.000000
  0.077182  0.038591  0.077182      1.000000
 -0.038591  0.038591  0.077182      1.000000
  0.000000  0.077182  0.077182      1.000000
  0.038591  0.077182  0.077182      1.000000
  0.077182  0.077182  0.077182      1.000000
 -0.038591  0.077182  0.077182      1.000000
  0.000000 -0.038591  0.077182      1.000000
  0.038591 -0.038591  0.077182      1.000000
  0.077182 -0.038591  0.077182      1.000000
 -0.038591 -0.038591  0.077182      1.000000
 -0.000000 -0.000000 -0.038591      1.000000
  0.038591  0.000000 -0.038591      1.000000
  0.077182  0.000000 -0.038591      1.000000
 -0.038591 -0.000000 -0.038591      1.000000
  0.000000  0.038591 -0.038591      1.000000
  0.038591  0.038591 -0.038591      1.000000
  0.077182  0.038591 -0.038591      1.000000
 -0.038591  0.038591 -0.038591      1.000000
  0.000000  0.077182 -0.038591      1.000000
  0.038591  0.077182 -0.038591      1.000000
  0.077182  0.077182 -0.038591      1.000000
 -0.038591  0.077182 -0.038591      1.000000
 -0.000000 -0.038591 -0.038591      1.000000
  0.038591 -0.038591 -0.038591      1.000000
  0.077182 -0.038591 -0.038591      1.000000
 -0.038591 -0.038591 -0.038591      1.000000
 
 WARNING: full set of k-points will be restricted to regular points only.

 
 Subroutine IBZKPT_HF returns following result:
 ==============================================
 
 Found     64 k-points in 1st BZ
 the following     64 k-points will be used (e.g. in the exchange kernel)
 Following reciprocal coordinates:   # in IRBZ
  0.000000  0.000000  0.000000    0.01562500   1 t-inv F
  0.250000  0.000000  0.000000    0.01562500   2 t-inv F
  0.500000  0.000000  0.000000    0.01562500   3 t-inv F
 -0.250000  0.000000  0.000000    0.01562500   4 t-inv F
  0.000000  0.250000  0.000000    0.01562500   5 t-inv F
  0.250000  0.250000  0.000000    0.01562500   6 t-inv F
  0.500000  0.250000  0.000000    0.01562500   7 t-inv F
 -0.250000  0.250000  0.000000    0.01562500   8 t-inv F
  0.000000  0.500000  0.000000    0.01562500   9 t-inv F
  0.250000  0.500000  0.000000    0.01562500  10 t-inv F
  0.500000  0.500000  0.000000    0.01562500  11 t-inv F
 -0.250000  0.500000  0.000000    0.01562500  12 t-inv F
  0.000000 -0.250000  0.000000    0.01562500  13 t-inv F
  0.250000 -0.250000  0.000000    0.01562500  14 t-inv F
  0.500000 -0.250000  0.000000    0.01562500  15 t-inv F
 -0.250000 -0.250000  0.000000    0.01562500  16 t-inv F
  0.000000  0.000000  0.250000    0.01562500  17 t-inv F
  0.250000  0.000000  0.250000    0.01562500  18 t-inv F
  0.500000  0.000000  0.250000    0.01562500  19 t-inv F
 -0.250000  0.000000  0.250000    0.01562500  20 t-inv F
  0.000000  0.250000  0.250000    0.01562500  21 t-inv F
  0.250000  0.250000  0.250000    0.01562500  22 t-inv F
  0.500000  0.250000  0.250000    0.01562500  23 t-inv F
 -0.250000  0.250000  0.250000    0.01562500  24 t-inv F
  0.000000  0.500000  0.250000    0.01562500  25 t-inv F
  0.250000  0.500000  0.250000    0.01562500  26 t-inv F
  0.500000  0.500000  0.250000    0.01562500  27 t-inv F
 -0.250000  0.500000  0.250000    0.01562500  28 t-inv F
  0.000000 -0.250000  0.250000    0.01562500  29 t-inv F
  0.250000 -0.250000  0.250000    0.01562500  30 t-inv F
  0.500000 -0.250000  0.250000    0.01562500  31 t-inv F
 -0.250000 -0.250000  0.250000    0.01562500  32 t-inv F
  0.000000  0.000000  0.500000    0.01562500  33 t-inv F
  0.250000  0.000000  0.500000    0.01562500  34 t-inv F
  0.500000  0.000000  0.500000    0.01562500  35 t-inv F
 -0.250000  0.000000  0.500000    0.01562500  36 t-inv F
  0.000000  0.250000  0.500000    0.01562500  37 t-inv F
  0.250000  0.250000  0.500000    0.01562500  38 t-inv F
  0.500000  0.250000  0.500000    0.01562500  39 t-inv F
 -0.250000  0.250000  0.500000    0.01562500  40 t-inv F
  0.000000  0.500000  0.500000    0.01562500  41 t-inv F
  0.250000  0.500000  0.500000    0.01562500  42 t-inv F
  0.500000  0.500000  0.500000    0.01562500  43 t-inv F
 -0.250000  0.500000  0.500000    0.01562500  44 t-inv F
  0.000000 -0.250000  0.500000    0.01562500  45 t-inv F
  0.250000 -0.250000  0.500000    0.01562500  46 t-inv F
  0.500000 -0.250000  0.500000    0.01562500  47 t-inv F
 -0.250000 -0.250000  0.500000    0.01562500  48 t-inv F
  0.000000  0.000000 -0.250000    0.01562500  49 t-inv F
  0.250000  0.000000 -0.250000    0.01562500  50 t-inv F
  0.500000  0.000000 -0.250000    0.01562500  51 t-inv F
 -0.250000  0.000000 -0.250000    0.01562500  52 t-inv F
  0.000000  0.250000 -0.250000    0.01562500  53 t-inv F
  0.250000  0.250000 -0.250000    0.01562500  54 t-inv F
  0.500000  0.250000 -0.250000    0.01562500  55 t-inv F
 -0.250000  0.250000 -0.250000    0.01562500  56 t-inv F
  0.000000  0.500000 -0.250000    0.01562500  57 t-inv F
  0.250000  0.500000 -0.250000    0.01562500  58 t-inv F
  0.500000  0.500000 -0.250000    0.01562500  59 t-inv F
 -0.250000  0.500000 -0.250000    0.01562500  60 t-inv F
  0.000000 -0.250000 -0.250000    0.01562500  61 t-inv F
  0.250000 -0.250000 -0.250000    0.01562500  62 t-inv F
  0.500000 -0.250000 -0.250000    0.01562500  63 t-inv F
 -0.250000 -0.250000 -0.250000    0.01562500  64 t-inv F


--------------------------------------------------------------------------------------------------------




 Dimension of arrays:
   k-points           NKPTS =     64   k-points in BZ     NKDIM =     64   number of bands    NBANDS=     64
   number of dos      NEDOS =   2000   number of ions     NIONS =      8
   non local maximal  LDIM  =      5   non local SUM 2l+1 LMDIM =     13
   total plane-waves  NPLWV = 216000
   max r-space proj   IRMAX =      1   max aug-charges    IRDMAX=  91110
   dimension x,y,z NGX =    60 NGY =   60 NGZ =   60
   dimension x,y,z NGXF=   120 NGYF=  120 NGZF=  120
   support grid    NGXF=   120 NGYF=  120 NGZF=  120
   ions per type =               4   4
   NGX,Y,Z   is equivalent  to a cutoff of  15.40, 15.40, 15.40 a.u.
   NGXF,Y,Z  is equivalent  to a cutoff of  30.79, 30.79, 30.79 a.u.

 SYSTEM =  unknown system                          
 POSCAR =  Te4 Pb4                                 

 Startparameter for this run:
   NWRITE =      2    write-flag & timer
   PREC   = accura    normal or accurate (medium, high low for compatibility)
   ISTART =      0    job   : 0-new  1-cont  2-samecut
   ICHARG =      2    charge: 1-file 2-atom 10-const
   ISPIN  =      1    spin polarized calculation?
   LNONCOLLINEAR =      T non collinear calculations
   LSORBIT =      T    spin-orbit coupling
   INIWAV =      1    electr: 0-lowe 1-rand  2-diag
   LASPH  =      T    aspherical Exc in radial PAW
 Electronic Relaxation 1
   ENCUT  =  770.0 eV  56.59 Ry    7.52 a.u.  14.66 14.66 14.66*2*pi/ulx,y,z
   ENINI  =  770.0     initial cutoff
   ENAUG  =  368.8 eV  augmentation charge cutoff
   NELM   =    200;   NELMIN=  2; NELMDL= -5     # of ELM steps 
   EDIFF  = 0.1E-04   stopping-criterion for ELM
   LREAL  =      F    real-space projection
   NLSPLINE    = F    spline interpolate recip. space projectors
   LCOMPAT=      F    compatible to vasp.4.4
   GGA_COMPAT  = T    GGA compatible to vasp.4.4-vasp.4.6
   LMAXPAW     = -100 max onsite density
   LMAXMIX     =    2 max onsite mixed and CHGCAR
   VOSKOWN=      0    Vosko Wilk Nusair interpolation
   ROPT   =    0.00000   0.00000
 Ionic relaxation
   EDIFFG = -.1E-01   stopping-criterion for IOM
   NSW    =      0    number of steps for IOM
   NBLOCK =      1;   KBLOCK =      1    inner block; outer block 
   IBRION =     -1    ionic relax: 0-MD 1-quasi-New 2-CG
   NFREE  =      1    steps in history (QN), initial steepest desc. (CG)
   ISIF   =      3    stress and relaxation
   IWAVPR =     10    prediction:  0-non 1-charg 2-wave 3-comb
   ISYM   =     -1    0-nonsym 1-usesym 2-fastsym
   LCORR  =      T    Harris-Foulkes like correction to forces

   POTIM  = 0.2000    time-step for ionic-motion
   TEIN   =    0.0    initial temperature
   TEBEG  =    0.0;   TEEND  =   0.0 temperature during run
   SMASS  =  -3.00    Nose mass-parameter (am)
   estimated Nose-frequenzy (Omega)   =  0.10E-29 period in steps = 0.31E+47 mass=  -0.959E-27a.u.
   SCALEE = 1.0000    scale energy and forces
   NPACO  =    256;   APACO  = 10.0  distance and # of slots for P.C.
   PSTRESS=    0.0 pullay stress

  Mass of Ions in am
   POMASS = 127.60207.20
  Ionic Valenz
   ZVAL   =   6.00  4.00
  Atomic Wigner-Seitz radii
   RWIGS  =  -1.00 -1.00
  virtual crystal weights 
   VCA    =   1.00  1.00
   NELECT =      40.0000    total number of electrons
   NUPDOWN=      -1.0000    fix difference up-down

 DOS related values:
   EMIN   =  10.00;   EMAX   =-10.00  energy-range for DOS
   EFERMI =   0.00
   ISMEAR =     0;   SIGMA  =   0.05  broadening in eV -4-tet -1-fermi 0-gaus

 Electronic relaxation 2 (details)
   IALGO  =     58    algorithm
   LDIAG  =      T    sub-space diagonalisation (order eigenvalues)
   LSUBROT=      F    optimize rotation matrix (better conditioning)
   TURBO    =      0    0=normal 1=particle mesh
   IRESTART =      0    0=no restart 2=restart with 2 vectors
   NREBOOT  =      0    no. of reboots
   NMIN     =      0    reboot dimension
   EREF     =   0.00    reference energy to select bands
   IMIX   =      4    mixing-type and parameters
     AMIX     =   0.40;   BMIX     =  1.00
     AMIX_MAG =   1.60;   BMIX_MAG =  1.00
     AMIN     =   0.10
     WC   =   100.;   INIMIX=   1;  MIXPRE=   1;  MAXMIX= -45

 Intra band minimization:
   WEIMIN = 0.0000     energy-eigenvalue tresh-hold
   EBREAK =  0.39E-07  absolut break condition
   DEPER  =   0.30     relativ break condition  

   TIME   =   0.40     timestep for ELM

  volume/ion in A,a.u.               =      33.98       229.33
  Fermi-wavevector in a.u.,A,eV,Ry     =   0.864256  1.633208 10.162722  0.746939
  Thomas-Fermi vector in A             =   1.982326

 Write flags
   LWAVE        =      T    write WAVECAR
   LDOWNSAMPLE  =      F    k-point downsampling of WAVECAR
   LCHARG       =      T    write CHGCAR
   LVTOT        =      F    write LOCPOT, total local potential
   LVHAR        =      T    write LOCPOT, Hartree potential only
   LELF         =      F    write electronic localiz. function (ELF)
   LORBIT       =     11    0 simple, 1 ext, 2 COOP (PROOUT), +10 PAW based schemes


 Dipole corrections
   LMONO  =      F    monopole corrections only (constant potential shift)
   LDIPOL =      F    correct potential (dipole corrections)
   IDIPOL =      0    1-x, 2-y, 3-z, 4-all directions 
   EPSILON=  1.0000000 bulk dielectric constant

 Exchange correlation treatment:
   GGA     =    --    GGA type
   LEXCH   =     8    internal setting for exchange type
   LIBXC   =     F    Libxc                    
   VOSKOWN =     0    Vosko Wilk Nusair interpolation
   EXXOEP  =     0    0=HF, 1=EXX-LHF (local Hartree Fock) 2=EXX OEP
   LHFCALC =     T    Hartree Fock is set to
   LSYMGRAD=     F    symmetrize gradient (conserves proper symmetry)
   PRECFOCK=fast      Normal, Fast or Accurate (Low or Medium for compatibility)
   LRHFCALC=     F    long range Hartree Fock
   LRSCOR  =     F    long range correlation only (use DFT for short range part)
   LTHOMAS =     F    Thomas Fermi screening in HF
   LMODELHF=     F    short range full HF, long range fraction AEXX
   FOCKCORR=     1    mode to apply convergence corrections
   LFOCKACE=     T    use Adeptively-Compressed-Exchange operator
   ENCUT4O =  -1.0   cutoff for four orbital integrals eV
   LMAXFOCK=     4    L truncation for augmentation on plane wave grid
   LMAXFOCKAE=  -1    L truncation for all-electron charge restoration on plane wave grid
   NMAXFOCKAE=   1    number of basis functions for all-electron charge restoration
   LFOCKAEDFT=     F  apply the AE augmentation even for DFT
   NKREDX  =     1    reduce k-point grid by
   NKREDY  =     1    reduce k-point grid by
   NKREDZ  =     1    reduce k-point grid by
   SHIFTRED=     F    shift reduced grid of Gamma
   HFKIDENT=     F    idential grid for each k-point
   ODDONLY =     F    use only odd q-grid points
   EVENONLY=     F    use only even q-grid points
   HFALPHA =   -1.0000 decay constant for conv. correction
   MCALPHA =    0.0000 extent of test-charge in conv. correction in multipole expansion
   AEXX    =    0.3500 exact exchange contribution
   HFSCREEN=    0.2080 screening length (either q_TF or 0.3 A-1)
   HFSCREENC=   0.2080 screening length for correlation (either q_TF or 0.3 A-1)
   HFRCUT  =    0.0000 spherical cutoff for potential kernel
   ALDAX   =    0.6500 LDA exchange part
   AGGAX   =    0.6500 GGA exchange part
   ALDAC   =    1.0000 LDA correlation
   AGGAC   =    1.0000 GGA correlation
   ENCUTFOCK=  -1.0 apply spherical cutoff to Coloumb kernel
   NBANDSGWLOW=     1    first orbital included in HF term
   NBLOCK_FOCK=    64    blocking factor in FOCK_ACC

 Linear response parameters
   LEPSILON=     F    determine dielectric tensor
   LRPA    =     F    only Hartree local field effects (RPA)
   LNABLA  =     F    use nabla operator in PAW spheres
   LVEL    =     F    velocity operator in full k-point grid
   CSHIFT  =0.1000    complex shift for real part using Kramers Kronig
   OMEGAMAX=  -1.0    maximum frequency
   DEG_THRESHOLD= 0.2000000E-02 threshold for treating states as degnerate
   RTIME   =   -0.100 relaxation time in fs
  (WPLASMAI=    0.000 imaginary part of plasma frequency in eV, 0.658/RTIME)
   DFIELD  = 0.0000000 0.0000000 0.0000000 field for delta impulse in time

  Optional k-point grid parameters
   LKPOINTS_OPT  =     F    use optional k-point grid
   KPOINTS_OPT_MODE=     1    mode for optional k-point grid

 Orbital magnetization related:
   ORBITALMAG=     F  switch on orbital magnetization
   LCHIMAG   =     F  perturbation theory with respect to B field
   DQ        =  0.001000  dq finite difference perturbation B field
   LLRAUG    =     F  two centre corrections for induced B field



--------------------------------------------------------------------------------------------------------


 Static calculation
 charge density and potential will be updated during run
 non collinear spin polarized calculation
 Conjugate gradient for all bands (Freysoldt, et al. PRB 79, 241103 (2009))
 preconditioned conjugated gradient                                        
 perform sub-space diagonalisation
    before iterative eigenvector-optimisation
 modified Broyden-mixing scheme, WC =      100.0
 initial mixing is a Kerker type mixing with AMIX =  0.4000 and BMIX =      1.0000
 Hartree-type preconditioning will be used
 using additional bands           44
 reciprocal scheme for non local part
 use partial core corrections
 no Harris-corrections to forces 
 use gradient corrections 
 use of overlap-Matrix (Vanderbilt PP)
 Gauss-broadening in eV      SIGMA  =   0.05


--------------------------------------------------------------------------------------------------------


  energy-cutoff  :      770.00
  volume of cell :      271.87
      direct lattice vectors                 reciprocal lattice vectors
     6.478168530 -0.000000438 -0.000000332     0.154364616  0.000000011  0.000000008
    -0.000000458  6.478168861 -0.000000258     0.000000010  0.154364608  0.000000006
    -0.000000345 -0.000000251  6.478168768     0.000000008  0.000000006  0.154364611

  length of vectors
     6.478168530  6.478168861  6.478168768     0.154364616  0.154364608  0.154364611



 k-points in units of 2pi/SCALE and weight: Automatic mesh                          
   0.00000000  0.00000000  0.00000000       0.016
   0.03859115  0.00000000  0.00000000       0.016
   0.07718231  0.00000001  0.00000000       0.016
  -0.03859115 -0.00000000 -0.00000000       0.016
   0.00000000  0.03859115  0.00000000       0.016
   0.03859116  0.03859115  0.00000000       0.016
   0.07718231  0.03859116  0.00000001       0.016
  -0.03859115  0.03859115 -0.00000000       0.016
   0.00000001  0.07718230  0.00000000       0.016
   0.03859116  0.07718231  0.00000001       0.016
   0.07718231  0.07718231  0.00000001       0.016
  -0.03859115  0.07718230  0.00000000       0.016
  -0.00000000 -0.03859115 -0.00000000       0.016
   0.03859115 -0.03859115  0.00000000       0.016
   0.07718231 -0.03859115  0.00000000       0.016
  -0.03859116 -0.03859115 -0.00000000       0.016
   0.00000000  0.00000000  0.03859115       0.016
   0.03859116  0.00000000  0.03859115       0.016
   0.07718231  0.00000001  0.03859116       0.016
  -0.03859115 -0.00000000  0.03859115       0.016
   0.00000000  0.03859115  0.03859115       0.016
   0.03859116  0.03859116  0.03859116       0.016
   0.07718231  0.03859116  0.03859116       0.016
  -0.03859115  0.03859115  0.03859115       0.016
   0.00000001  0.07718231  0.03859116       0.016
   0.03859116  0.07718231  0.03859116       0.016
   0.07718232  0.07718231  0.03859116       0.016
  -0.03859115  0.07718230  0.03859115       0.016
  -0.00000000 -0.03859115  0.03859115       0.016
   0.03859115 -0.03859115  0.03859115       0.016
   0.07718231 -0.03859115  0.03859116       0.016
  -0.03859115 -0.03859115  0.03859115       0.016
   0.00000000  0.00000000  0.07718231       0.016
   0.03859116  0.00000001  0.07718231       0.016
   0.07718231  0.00000001  0.07718231       0.016
  -0.03859115  0.00000000  0.07718230       0.016
   0.00000001  0.03859116  0.07718231       0.016
   0.03859116  0.03859116  0.07718231       0.016
   0.07718231  0.03859116  0.07718231       0.016
  -0.03859115  0.03859115  0.07718230       0.016
   0.00000001  0.07718231  0.07718231       0.016
   0.03859116  0.07718231  0.07718231       0.016
   0.07718232  0.07718231  0.07718231       0.016
  -0.03859114  0.07718230  0.07718231       0.016
   0.00000000 -0.03859115  0.07718230       0.016
   0.03859116 -0.03859115  0.07718231       0.016
   0.07718231 -0.03859114  0.07718231       0.016
  -0.03859115 -0.03859115  0.07718230       0.016
  -0.00000000 -0.00000000 -0.03859115       0.016
   0.03859115  0.00000000 -0.03859115       0.016
   0.07718231  0.00000000 -0.03859115       0.016
  -0.03859116 -0.00000000 -0.03859115       0.016
   0.00000000  0.03859115 -0.03859115       0.016
   0.03859115  0.03859115 -0.03859115       0.016
   0.07718231  0.03859116 -0.03859115       0.016
  -0.03859115  0.03859115 -0.03859115       0.016
   0.00000000  0.07718230 -0.03859115       0.016
   0.03859116  0.07718231 -0.03859115       0.016
   0.07718231  0.07718231 -0.03859115       0.016
  -0.03859115  0.07718230 -0.03859115       0.016
  -0.00000000 -0.03859115 -0.03859115       0.016
   0.03859115 -0.03859115 -0.03859115       0.016
   0.07718230 -0.03859115 -0.03859115       0.016
  -0.03859116 -0.03859116 -0.03859116       0.016

 k-points in reciprocal lattice and weights: Automatic mesh                          
   0.00000000  0.00000000  0.00000000       0.016
   0.25000000  0.00000000  0.00000000       0.016
   0.50000000  0.00000000  0.00000000       0.016
  -0.25000000  0.00000000  0.00000000       0.016
   0.00000000  0.25000000  0.00000000       0.016
   0.25000000  0.25000000  0.00000000       0.016
   0.50000000  0.25000000  0.00000000       0.016
  -0.25000000  0.25000000  0.00000000       0.016
   0.00000000  0.50000000  0.00000000       0.016
   0.25000000  0.50000000  0.00000000       0.016
   0.50000000  0.50000000  0.00000000       0.016
  -0.25000000  0.50000000  0.00000000       0.016
   0.00000000 -0.25000000  0.00000000       0.016
   0.25000000 -0.25000000  0.00000000       0.016
   0.50000000 -0.25000000  0.00000000       0.016
  -0.25000000 -0.25000000  0.00000000       0.016
   0.00000000  0.00000000  0.25000000       0.016
   0.25000000  0.00000000  0.25000000       0.016
   0.50000000  0.00000000  0.25000000       0.016
  -0.25000000  0.00000000  0.25000000       0.016
   0.00000000  0.25000000  0.25000000       0.016
   0.25000000  0.25000000  0.25000000       0.016
   0.50000000  0.25000000  0.25000000       0.016
  -0.25000000  0.25000000  0.25000000       0.016
   0.00000000  0.50000000  0.25000000       0.016
   0.25000000  0.50000000  0.25000000       0.016
   0.50000000  0.50000000  0.25000000       0.016
  -0.25000000  0.50000000  0.25000000       0.016
   0.00000000 -0.25000000  0.25000000       0.016
   0.25000000 -0.25000000  0.25000000       0.016
   0.50000000 -0.25000000  0.25000000       0.016
  -0.25000000 -0.25000000  0.25000000       0.016
   0.00000000  0.00000000  0.50000000       0.016
   0.25000000  0.00000000  0.50000000       0.016
   0.50000000  0.00000000  0.50000000       0.016
  -0.25000000  0.00000000  0.50000000       0.016
   0.00000000  0.25000000  0.50000000       0.016
   0.25000000  0.25000000  0.50000000       0.016
   0.50000000  0.25000000  0.50000000       0.016
  -0.25000000  0.25000000  0.50000000       0.016
   0.00000000  0.50000000  0.50000000       0.016
   0.25000000  0.50000000  0.50000000       0.016
   0.50000000  0.50000000  0.50000000       0.016
  -0.25000000  0.50000000  0.50000000       0.016
   0.00000000 -0.25000000  0.50000000       0.016
   0.25000000 -0.25000000  0.50000000       0.016
   0.50000000 -0.25000000  0.50000000       0.016
  -0.25000000 -0.25000000  0.50000000       0.016
   0.00000000  0.00000000 -0.25000000       0.016
   0.25000000  0.00000000 -0.25000000       0.016
   0.50000000  0.00000000 -0.25000000       0.016
  -0.25000000  0.00000000 -0.25000000       0.016
   0.00000000  0.25000000 -0.25000000       0.016
   0.25000000  0.25000000 -0.25000000       0.016
   0.50000000  0.25000000 -0.25000000       0.016
  -0.25000000  0.25000000 -0.25000000       0.016
   0.00000000  0.50000000 -0.25000000       0.016
   0.25000000  0.50000000 -0.25000000       0.016
   0.50000000  0.50000000 -0.25000000       0.016
  -0.25000000  0.50000000 -0.25000000       0.016
   0.00000000 -0.25000000 -0.25000000       0.016
   0.25000000 -0.25000000 -0.25000000       0.016
   0.50000000 -0.25000000 -0.25000000       0.016
  -0.25000000 -0.25000000 -0.25000000       0.016

 position of ions in fractional coordinates (direct lattice) 
   0.00000011  0.99999996  0.00000004
   0.00000009  0.50000005  0.49999996
   0.49999991  0.99999994  0.49999998
   0.49999990  0.50000005  0.99999999
   0.00000004  0.99999997  0.49999999
   0.00000007  0.50000002  0.00000002
   0.49999994  0.99999997  0.00000003
   0.49999995  0.50000004  0.50000000

 position of ions in cartesian coordinates  (Angst):
   0.00000024  6.47816860 -0.00000002
   0.00000015  3.23908465  3.23908400
   3.23908307  6.47816811  3.23908386
   3.23908303  3.23908429  6.47816841
  -0.00000035  6.47816852  3.23908406
   0.00000019  3.23908455 -0.00000003
   3.23908343  6.47816845 -0.00000026
   3.23908351  3.23908437  3.23908407

 Euler angles ALPHA=     0.0000000  BETA=     0.0000000

 transformation matrix from SAXIS to cartesian coordinates
 ---------------------------------------------------------
     1.0000000 m_x    -0.0000000 m_y     0.0000000 m_z
     0.0000000 m_x     1.0000000 m_y     0.0000000 m_z
    -0.0000000 m_x     0.0000000 m_y     1.0000000 m_z

 transformation matrix from cartesian coordinates to SAXIS
 ---------------------------------------------------------
     1.0000000 m_x     0.0000000 m_y    -0.0000000 m_z
    -0.0000000 m_x     1.0000000 m_y     0.0000000 m_z
     0.0000000 m_x     0.0000000 m_y     1.0000000 m_z




--------------------------------------------------------------------------------------------------------


 k-point   1 :   0.0000 0.0000 0.0000  plane waves:   26410
 k-point   2 :   0.2500 0.0000 0.0000  plane waves:   26386
 k-point   3 :   0.5000 0.0000 0.0000  plane waves:   26380
 k-point   4 :  -0.2500 0.0000 0.0000  plane waves:   26386
 k-point   5 :   0.0000 0.2500 0.0000  plane waves:   26386
 k-point   6 :   0.2500 0.2500 0.0000  plane waves:   26414
 k-point   7 :   0.5000 0.2500 0.0000  plane waves:   26428
 k-point   8 :  -0.2500 0.2500 0.0000  plane waves:   26414
 k-point   9 :   0.0000 0.5000 0.0000  plane waves:   26380
 k-point  10 :   0.2500 0.5000 0.0000  plane waves:   26428
 k-point  11 :   0.5000 0.5000 0.0000  plane waves:   26480
 k-point  12 :  -0.2500 0.5000 0.0000  plane waves:   26428
 k-point  13 :   0.0000-0.2500 0.0000  plane waves:   26386
 k-point  14 :   0.2500-0.2500 0.0000  plane waves:   26414
 k-point  15 :   0.5000-0.2500 0.0000  plane waves:   26428
 k-point  16 :  -0.2500-0.2500 0.0000  plane waves:   26414
 k-point  17 :   0.0000 0.0000 0.2500  plane waves:   26386
 k-point  18 :   0.2500 0.0000 0.2500  plane waves:   26414
 k-point  19 :   0.5000 0.0000 0.2500  plane waves:   26428
 k-point  20 :  -0.2500 0.0000 0.2500  plane waves:   26414
 k-point  21 :   0.0000 0.2500 0.2500  plane waves:   26414
 k-point  22 :   0.2500 0.2500 0.2500  plane waves:   26404
 k-point  23 :   0.5000 0.2500 0.2500  plane waves:   26312
 k-point  24 :  -0.2500 0.2500 0.2500  plane waves:   26404
 k-point  25 :   0.0000 0.5000 0.2500  plane waves:   26428
 k-point  26 :   0.2500 0.5000 0.2500  plane waves:   26312
 k-point  27 :   0.5000 0.5000 0.2500  plane waves:   26328
 k-point  28 :  -0.2500 0.5000 0.2500  plane waves:   26312
 k-point  29 :   0.0000-0.2500 0.2500  plane waves:   26414
 k-point  30 :   0.2500-0.2500 0.2500  plane waves:   26404
 k-point  31 :   0.5000-0.2500 0.2500  plane waves:   26312
 k-point  32 :  -0.2500-0.2500 0.2500  plane waves:   26404
 k-point  33 :   0.0000 0.0000 0.5000  plane waves:   26380
 k-point  34 :   0.2500 0.0000 0.5000  plane waves:   26428
 k-point  35 :   0.5000 0.0000 0.5000  plane waves:   26480
 k-point  36 :  -0.2500 0.0000 0.5000  plane waves:   26428
 k-point  37 :   0.0000 0.2500 0.5000  plane waves:   26428
 k-point  38 :   0.2500 0.2500 0.5000  plane waves:   26312
 k-point  39 :   0.5000 0.2500 0.5000  plane waves:   26328
 k-point  40 :  -0.2500 0.2500 0.5000  plane waves:   26312
 k-point  41 :   0.0000 0.5000 0.5000  plane waves:   26480
 k-point  42 :   0.2500 0.5000 0.5000  plane waves:   26328
 k-point  43 :   0.5000 0.5000 0.5000  plane waves:   26528
 k-point  44 :  -0.2500 0.5000 0.5000  plane waves:   26328
 k-point  45 :   0.0000-0.2500 0.5000  plane waves:   26428
 k-point  46 :   0.2500-0.2500 0.5000  plane waves:   26312
 k-point  47 :   0.5000-0.2500 0.5000  plane waves:   26328
 k-point  48 :  -0.2500-0.2500 0.5000  plane waves:   26312
 k-point  49 :   0.0000 0.0000-0.2500  plane waves:   26386
 k-point  50 :   0.2500 0.0000-0.2500  plane waves:   26414
 k-point  51 :   0.5000 0.0000-0.2500  plane waves:   26428
 k-point  52 :  -0.2500 0.0000-0.2500  plane waves:   26414
 k-point  53 :   0.0000 0.2500-0.2500  plane waves:   26414
 k-point  54 :   0.2500 0.2500-0.2500  plane waves:   26404
 k-point  55 :   0.5000 0.2500-0.2500  plane waves:   26312
 k-point  56 :  -0.2500 0.2500-0.2500  plane waves:   26404
 k-point  57 :   0.0000 0.5000-0.2500  plane waves:   26428
 k-point  58 :   0.2500 0.5000-0.2500  plane waves:   26312
 k-point  59 :   0.5000 0.5000-0.2500  plane waves:   26328
 k-point  60 :  -0.2500 0.5000-0.2500  plane waves:   26312
 k-point  61 :   0.0000-0.2500-0.2500  plane waves:   26414
 k-point  62 :   0.2500-0.2500-0.2500  plane waves:   26404
 k-point  63 :   0.5000-0.2500-0.2500  plane waves:   26312
 k-point  64 :  -0.2500-0.2500-0.2500  plane waves:   26404

 maximum and minimum number of plane-waves per node :     13378    13026

 maximum number of plane-waves:     26528
 maximum index in each direction: 
   IXMAX=   14   IYMAX=   14   IZMAX=   14
   IXMIN=  -15   IYMIN=  -15   IZMIN=  -15


 parallel 3D FFT for wavefunctions:
    minimum data exchange during FFTs selected (reduces bandwidth)
 parallel 3D FFT for charge:
    minimum data exchange during FFTs selected (reduces bandwidth)


 FFT grid for exact exchange (Hartree Fock) 
  NGX = 32; NGY = 32; NGZ = 32


 Radii for the augmentation spheres in the non-local exchange
 for species   1 augmentation radius   1.606 (default was   1.190)
       energy cutoff for augmentation   3080.0
 for species   2 augmentation radius   2.013 (default was   1.491)
       energy cutoff for augmentation   3080.0

 real space projection operators:
  total allocation   :       4820.31 KBytes
  max/ min on nodes  :       2439.06       2381.25

 Maximum index for augmentation-charges in exchange         2017
  SETUP_FOCK is finished

 total amount of memory used by VASP MPI-rank0   232182. kBytes
=======================================================================

   base      :      30000. kBytes
   nonl-proj :      89026. kBytes
   fftplans  :       6544. kBytes
   grid      :      20736. kBytes
   one-center:        129. kBytes
   HF        :         67. kBytes
   nonlr-proj:       3498. kBytes
   wavefun   :      82182. kBytes

     INWAV:  cpu time      0.0001: real time      0.0001
 Broyden mixing: mesh for mixing (old mesh)
   NGX = 29   NGY = 29   NGZ = 29
  (NGX  =120   NGY  =120   NGZ  =120)
  gives a total of  24389 points

 initial charge density was supplied:
 charge density of overlapping atoms calculated
 number of electron      40.0000000 magnetization       8.0000000      8.0000000      8.0000000
 keeping initial charge density in first step


--------------------------------------------------------------------------------------------------------


 Maximum index for augmentation-charges         2393 (set IRDMAX)


--------------------------------------------------------------------------------------------------------


 First call to EWALD:  gamma=   0.274
 Maximum number of real-space cells 3x 3x 3
 Maximum number of reciprocal cells 3x 3x 3

    FEWALD:  cpu time      0.0499: real time      0.0499


--------------------------------------- Iteration      1(   1)  ---------------------------------------


    POTLOK:  cpu time      0.1733: real time      0.1740
    SETDIJ:  cpu time      0.6710: real time      0.6718
    TRIAL :  cpu time      3.8307: real time      3.8389
    CORREC:  cpu time      0.0027: real time      0.0027
    --------------------------------------------
      LOOP:  cpu time      4.7337: real time      4.7433

 eigenvalue-minimisations  :  8192
 total energy-change (2. order) :-0.2055328E+05  (-0.1983171E+04)
 number of electron      40.0000000 magnetization       8.0000000      8.0000000      8.0000000
 augmentation part       40.0000000 magnetization       8.0000000      8.0000000      8.0000000

 Free energy of the ion-electron system (eV)
  ---------------------------------------------------
  alpha Z        PSCENC =        15.96438410
  Ewald energy   TEWEN  =     -1292.43512201
  -Hartree energ DENC   =       -75.74949492
  -exchange      EXHF   =         0.00000000
  -V(xc)+E(xc)   XCENC  =      -625.77935135
  PAW double counting   =      1628.52707375   -21646.92004559
  entropy T*S    EENTRO =        -0.00417739
  eigenvalues    EBANDS =       176.03903120
  atomic energy  EATOM  =      1267.07504369
  ---------------------------------------------------
  free energy    TOTEN  =    -20553.28265853 eV

  energy without entropy =   -20553.27848114  energy(sigma->0) =   -20553.28056983
  exchange ACFDT corr.  =         0.00000000  see jH, gK, PRB 81, 115126


--------------------------------------------------------------------------------------------------------




--------------------------------------- Iteration      1(   2)  ---------------------------------------


    TRIAL :  cpu time      5.5196: real time      5.5226
    CORREC:  cpu time      0.0011: real time      0.0011
    --------------------------------------------
      LOOP:  cpu time      5.5485: real time      5.5518

 eigenvalue-minimisations  : 11744
 total energy-change (2. order) :-0.2354944E+03  (-0.2298651E+03)
 number of electron      40.0000000 magnetization       8.0000000      8.0000000      8.0000000
 augmentation part       40.0000000 magnetization       8.0000000      8.0000000      8.0000000

 Free energy of the ion-electron system (eV)
  ---------------------------------------------------
  alpha Z        PSCENC =        15.96438410
  Ewald energy   TEWEN  =     -1292.43512201
  -Hartree energ DENC   =       -75.74949492
  -exchange      EXHF   =         0.00000000
  -V(xc)+E(xc)   XCENC  =      -625.77935135
  PAW double counting   =      1628.52707375   -21646.92004559
  entropy T*S    EENTRO =        -0.00204230
  eigenvalues    EBANDS =       -59.45753889
  atomic energy  EATOM  =      1267.07504369
  ---------------------------------------------------
  free energy    TOTEN  =    -20788.77709353 eV

  energy without entropy =   -20788.77505123  energy(sigma->0) =   -20788.77607238
  exchange ACFDT corr.  =         0.00000000  see jH, gK, PRB 81, 115126


--------------------------------------------------------------------------------------------------------




--------------------------------------- Iteration      1(   3)  ---------------------------------------


    TRIAL :  cpu time      5.5721: real time      5.5755
    CORREC:  cpu time      0.0011: real time      0.0011
    --------------------------------------------
      LOOP:  cpu time      5.5887: real time      5.6062

 eigenvalue-minimisations  : 11936
 total energy-change (2. order) :-0.2064109E+02  (-0.2051811E+02)
 number of electron      40.0000000 magnetization       8.0000000      8.0000000      8.0000000
 augmentation part       40.0000000 magnetization       8.0000000      8.0000000      8.0000000

 Free energy of the ion-electron system (eV)
  ---------------------------------------------------
  alpha Z        PSCENC =        15.96438410
  Ewald energy   TEWEN  =     -1292.43512201
  -Hartree energ DENC   =       -75.74949492
  -exchange      EXHF   =         0.00000000
  -V(xc)+E(xc)   XCENC  =      -625.77935135
  PAW double counting   =      1628.52707375   -21646.92004559
  entropy T*S    EENTRO =        -0.00120647
  eigenvalues    EBANDS =       -80.09946962
  atomic energy  EATOM  =      1267.07504369
  ---------------------------------------------------
  free energy    TOTEN  =    -20809.41818842 eV

  energy without entropy =   -20809.41698196  energy(sigma->0) =   -20809.41758519
  exchange ACFDT corr.  =         0.00000000  see jH, gK, PRB 81, 115126


--------------------------------------------------------------------------------------------------------




--------------------------------------- Iteration      1(   4)  ---------------------------------------


    TRIAL :  cpu time      5.4990: real time      5.5027
    CORREC:  cpu time      0.0011: real time      0.0011
    --------------------------------------------
      LOOP:  cpu time      5.5123: real time      5.5333

 eigenvalue-minimisations  : 11808
 total energy-change (2. order) :-0.7612024E+00  (-0.7609661E+00)
 number of electron      40.0000000 magnetization       8.0000000      8.0000000      8.0000000
 augmentation part       40.0000000 magnetization       8.0000000      8.0000000      8.0000000

 Free energy of the ion-electron system (eV)
  ---------------------------------------------------
  alpha Z        PSCENC =        15.96438410
  Ewald energy   TEWEN  =     -1292.43512201
  -Hartree energ DENC   =       -75.74949492
  -exchange      EXHF   =         0.00000000
  -V(xc)+E(xc)   XCENC  =      -625.77935135
  PAW double counting   =      1628.52707375   -21646.92004559
  entropy T*S    EENTRO =        -0.00119712
  eigenvalues    EBANDS =       -80.86068139
  atomic energy  EATOM  =      1267.07504369
  ---------------------------------------------------
  free energy    TOTEN  =    -20810.17939085 eV

  energy without entropy =   -20810.17819373  energy(sigma->0) =   -20810.17879229
  exchange ACFDT corr.  =         0.00000000  see jH, gK, PRB 81, 115126


--------------------------------------------------------------------------------------------------------




--------------------------------------- Iteration      1(   5)  ---------------------------------------


    POTLOK:  cpu time      0.2095: real time      0.2096
    SETDIJ:  cpu time      1.9308: real time      1.9315
    TRIAL :  cpu time    296.7172: real time    296.9460
    CORREC:  cpu time      0.0010: real time      0.0010
    CHARGE:  cpu time      0.5817: real time      0.5818
    --------------------------------------------
      LOOP:  cpu time    299.4665: real time    299.6980

 eigenvalue-minimisations  :  8192
 total energy-change (2. order) : 0.2077347E+05  (-0.5302550E+01)
 number of electron      39.9999998 magnetization       0.0303424      0.0303155      0.0303694
 augmentation part      -10.2987391 magnetization       0.0797815      0.0794947      0.0797686

 Free energy of the ion-electron system (eV)
  ---------------------------------------------------
  alpha Z        PSCENC =        15.96438410
  Ewald energy   TEWEN  =     -1292.43512201
  -Hartree energ DENC   =       -75.74949492
  -exchange      EXHF   =        72.74731555
  -V(xc)+E(xc)   XCENC  =      -449.93040491
  PAW double counting   =      1449.99564529     -955.04352290
  entropy T*S    EENTRO =        -0.00000314
  eigenvalues    EBANDS =       -69.33817120
  atomic energy  EATOM  =      1267.07504369
  ---------------------------------------------------
  free energy    TOTEN  =       -36.71433046 eV

  energy without entropy =      -36.71432732  energy(sigma->0) =      -36.71432889
  exchange ACFDT corr.  =        -0.00085180  see jH, gK, PRB 81, 115126


--------------------------------------------------------------------------------------------------------




--------------------------------------- Iteration      1(   6)  ---------------------------------------


    POTLOK:  cpu time      0.2062: real time      0.2062
    SETDIJ:  cpu time      1.9157: real time      1.9163
    TRIAL :  cpu time    293.9921: real time    294.2209
    CORREC:  cpu time    295.8132: real time    296.0251
    CHARGE:  cpu time      0.5142: real time      0.5144
    --------------------------------------------
